# vtk DataFile Version 2.0
shockTube.FINE
ASCII
DATASET UNSTRUCTURED_GRID
POINTS 8004 float
-5 -1 -1 -4.995 -1 -1 -4.99 -1 -1 -4.985 -1
-1 -4.98 -1 -1 -4.975 -1 -1 -4.97 -1 -1
-4.965 -1 -1 -4.96 -1 -1 -4.955 -1 -1 -4.95
-1 -1 -4.945 -1 -1 -4.94 -1 -1 -4.935 -1
-1 -4.93 -1 -1 -4.925 -1 -1 -4.92 -1 -1
-4.915 -1 -1 -4.91 -1 -1 -4.905 -1 -1 -4.9
-1 -1 -4.895 -1 -1 -4.89 -1 -1 -4.885 -1
-1 -4.88 -1 -1 -4.875 -1 -1 -4.87 -1 -1
-4.865 -1 -1 -4.86 -1 -1 -4.855 -1 -1 -4.85
-1 -1 -4.845 -1 -1 -4.84 -1 -1 -4.835 -1
-1 -4.83 -1 -1 -4.825 -1 -1 -4.82 -1 -1
-4.815 -1 -1 -4.81 -1 -1 -4.805 -1 -1 -4.8
-1 -1 -4.795 -1 -1 -4.79 -1 -1 -4.785 -1
-1 -4.78 -1 -1 -4.775 -1 -1 -4.77 -1 -1
-4.765 -1 -1 -4.76 -1 -1 -4.755 -1 -1 -4.75
-1 -1 -4.745 -1 -1 -4.74 -1 -1 -4.735 -1
-1 -4.73 -1 -1 -4.725 -1 -1 -4.72 -1 -1
-4.715 -1 -1 -4.71 -1 -1 -4.705 -1 -1 -4.7
-1 -1 -4.695 -1 -1 -4.69 -1 -1 -4.685 -1
-1 -4.68 -1 -1 -4.675 -1 -1 -4.67 -1 -1
-4.665 -1 -1 -4.66 -1 -1 -4.655 -1 -1 -4.65
-1 -1 -4.645 -1 -1 -4.64 -1 -1 -4.635 -1
-1 -4.63 -1 -1 -4.625 -1 -1 -4.62 -1 -1
-4.615 -1 -1 -4.61 -1 -1 -4.605 -1 -1 -4.6
-1 -1 -4.595 -1 -1 -4.59 -1 -1 -4.585 -1
-1 -4.58 -1 -1 -4.575 -1 -1 -4.57 -1 -1
-4.565 -1 -1 -4.56 -1 -1 -4.555 -1 -1 -4.55
-1 -1 -4.545 -1 -1 -4.54 -1 -1 -4.535 -1
-1 -4.53 -1 -1 -4.525 -1 -1 -4.52 -1 -1
-4.515 -1 -1 -4.51 -1 -1 -4.505 -1 -1 -4.5
-1 -1 -4.495 -1 -1 -4.49 -1 -1 -4.485 -1
-1 -4.48 -1 -1 -4.475 -1 -1 -4.47 -1 -1
-4.465 -1 -1 -4.46 -1 -1 -4.455 -1 -1 -4.45
-1 -1 -4.445 -1 -1 -4.44 -1 -1 -4.435 -1
-1 -4.43 -1 -1 -4.425 -1 -1 -4.42 -1 -1
-4.415 -1 -1 -4.41 -1 -1 -4.405 -1 -1 -4.4
-1 -1 -4.395 -1 -1 -4.39 -1 -1 -4.385 -1
-1 -4.38 -1 -1 -4.375 -1 -1 -4.37 -1 -1
-4.365 -1 -1 -4.36 -1 -1 -4.355 -1 -1 -4.35
-1 -1 -4.345 -1 -1 -4.34 -1 -1 -4.335 -1
-1 -4.33 -1 -1 -4.325 -1 -1 -4.32 -1 -1
-4.315 -1 -1 -4.31 -1 -1 -4.305 -1 -1 -4.3
-1 -1 -4.295 -1 -1 -4.29 -1 -1 -4.285 -1
-1 -4.28 -1 -1 -4.275 -1 -1 -4.27 -1 -1
-4.265 -1 -1 -4.26 -1 -1 -4.255 -1 -1 -4.25
-1 -1 -4.245 -1 -1 -4.24 -1 -1 -4.235 -1
-1 -4.23 -1 -1 -4.225 -1 -1 -4.22 -1 -1
-4.215 -1 -1 -4.21 -1 -1 -4.205 -1 -1 -4.2
-1 -1 -4.195 -1 -1 -4.19 -1 -1 -4.185 -1
-1 -4.18 -1 -1 -4.175 -1 -1 -4.17 -1 -1
-4.165 -1 -1 -4.16 -1 -1 -4.155 -1 -1 -4.15
-1 -1 -4.145 -1 -1 -4.14 -1 -1 -4.135 -1
-1 -4.13 -1 -1 -4.125 -1 -1 -4.12 -1 -1
-4.115 -1 -1 -4.11 -1 -1 -4.105 -1 -1 -4.1
-1 -1 -4.095 -1 -1 -4.09 -1 -1 -4.085 -1
-1 -4.08 -1 -1 -4.075 -1 -1 -4.07 -1 -1
-4.065 -1 -1 -4.06 -1 -1 -4.055 -1 -1 -4.05
-1 -1 -4.045 -1 -1 -4.04 -1 -1 -4.035 -1
-1 -4.03 -1 -1 -4.025 -1 -1 -4.02 -1 -1
-4.015 -1 -1 -4.01 -1 -1 -4.005 -1 -1 -4
-1 -1 -3.995 -1 -1 -3.99 -1 -1 -3.985 -1
-1 -3.98 -1 -1 -3.975 -1 -1 -3.97 -1 -1
-3.965 -1 -1 -3.96 -1 -1 -3.955 -1 -1 -3.95
-1 -1 -3.945 -1 -1 -3.94 -1 -1 -3.935 -1
-1 -3.93 -1 -1 -3.925 -1 -1 -3.92 -1 -1
-3.915 -1 -1 -3.91 -1 -1 -3.905 -1 -1 -3.9
-1 -1 -3.895 -1 -1 -3.89 -1 -1 -3.885 -1
-1 -3.88 -1 -1 -3.875 -1 -1 -3.87 -1 -1
-3.865 -1 -1 -3.86 -1 -1 -3.855 -1 -1 -3.85
-1 -1 -3.845 -1 -1 -3.84 -1 -1 -3.835 -1
-1 -3.83 -1 -1 -3.825 -1 -1 -3.82 -1 -1
-3.815 -1 -1 -3.81 -1 -1 -3.805 -1 -1 -3.8
-1 -1 -3.795 -1 -1 -3.79 -1 -1 -3.785 -1
-1 -3.78 -1 -1 -3.775 -1 -1 -3.77 -1 -1
-3.765 -1 -1 -3.76 -1 -1 -3.755 -1 -1 -3.75
-1 -1 -3.745 -1 -1 -3.74 -1 -1 -3.735 -1
-1 -3.73 -1 -1 -3.725 -1 -1 -3.72 -1 -1
-3.715 -1 -1 -3.71 -1 -1 -3.705 -1 -1 -3.7
-1 -1 -3.695 -1 -1 -3.69 -1 -1 -3.685 -1
-1 -3.68 -1 -1 -3.675 -1 -1 -3.67 -1 -1
-3.665 -1 -1 -3.66 -1 -1 -3.655 -1 -1 -3.65
-1 -1 -3.645 -1 -1 -3.64 -1 -1 -3.635 -1
-1 -3.63 -1 -1 -3.625 -1 -1 -3.62 -1 -1
-3.615 -1 -1 -3.61 -1 -1 -3.605 -1 -1 -3.6
-1 -1 -3.595 -1 -1 -3.59 -1 -1 -3.585 -1
-1 -3.58 -1 -1 -3.575 -1 -1 -3.57 -1 -1
-3.565 -1 -1 -3.56 -1 -1 -3.555 -1 -1 -3.55
-1 -1 -3.545 -1 -1 -3.54 -1 -1 -3.535 -1
-1 -3.53 -1 -1 -3.525 -1 -1 -3.52 -1 -1
-3.515 -1 -1 -3.51 -1 -1 -3.505 -1 -1 -3.5
-1 -1 -3.495 -1 -1 -3.49 -1 -1 -3.485 -1
-1 -3.48 -1 -1 -3.475 -1 -1 -3.47 -1 -1
-3.465 -1 -1 -3.46 -1 -1 -3.455 -1 -1 -3.45
-1 -1 -3.445 -1 -1 -3.44 -1 -1 -3.435 -1
-1 -3.43 -1 -1 -3.425 -1 -1 -3.42 -1 -1
-3.415 -1 -1 -3.41 -1 -1 -3.405 -1 -1 -3.4
-1 -1 -3.395 -1 -1 -3.39 -1 -1 -3.385 -1
-1 -3.38 -1 -1 -3.375 -1 -1 -3.37 -1 -1
-3.365 -1 -1 -3.36 -1 -1 -3.355 -1 -1 -3.35
-1 -1 -3.345 -1 -1 -3.34 -1 -1 -3.335 -1
-1 -3.33 -1 -1 -3.325 -1 -1 -3.32 -1 -1
-3.315 -1 -1 -3.31 -1 -1 -3.305 -1 -1 -3.3
-1 -1 -3.295 -1 -1 -3.29 -1 -1 -3.285 -1
-1 -3.28 -1 -1 -3.275 -1 -1 -3.27 -1 -1
-3.265 -1 -1 -3.26 -1 -1 -3.255 -1 -1 -3.25
-1 -1 -3.245 -1 -1 -3.24 -1 -1 -3.235 -1
-1 -3.23 -1 -1 -3.225 -1 -1 -3.22 -1 -1
-3.215 -1 -1 -3.21 -1 -1 -3.205 -1 -1 -3.2
-1 -1 -3.195 -1 -1 -3.19 -1 -1 -3.185 -1
-1 -3.18 -1 -1 -3.175 -1 -1 -3.17 -1 -1
-3.165 -1 -1 -3.16 -1 -1 -3.155 -1 -1 -3.15
-1 -1 -3.145 -1 -1 -3.14 -1 -1 -3.135 -1
-1 -3.13 -1 -1 -3.125 -1 -1 -3.12 -1 -1
-3.115 -1 -1 -3.11 -1 -1 -3.105 -1 -1 -3.1
-1 -1 -3.095 -1 -1 -3.09 -1 -1 -3.085 -1
-1 -3.08 -1 -1 -3.075 -1 -1 -3.07 -1 -1
-3.065 -1 -1 -3.06 -1 -1 -3.055 -1 -1 -3.05
-1 -1 -3.045 -1 -1 -3.04 -1 -1 -3.035 -1
-1 -3.03 -1 -1 -3.025 -1 -1 -3.02 -1 -1
-3.015 -1 -1 -3.01 -1 -1 -3.005 -1 -1 -3
-1 -1 -2.995 -1 -1 -2.99 -1 -1 -2.985 -1
-1 -2.98 -1 -1 -2.975 -1 -1 -2.97 -1 -1
-2.965 -1 -1 -2.96 -1 -1 -2.955 -1 -1 -2.95
-1 -1 -2.945 -1 -1 -2.94 -1 -1 -2.935 -1
-1 -2.93 -1 -1 -2.925 -1 -1 -2.92 -1 -1
-2.915 -1 -1 -2.91 -1 -1 -2.905 -1 -1 -2.9
-1 -1 -2.895 -1 -1 -2.89 -1 -1 -2.885 -1
-1 -2.88 -1 -1 -2.875 -1 -1 -2.87 -1 -1
-2.865 -1 -1 -2.86 -1 -1 -2.855 -1 -1 -2.85
-1 -1 -2.845 -1 -1 -2.84 -1 -1 -2.835 -1
-1 -2.83 -1 -1 -2.825 -1 -1 -2.82 -1 -1
-2.815 -1 -1 -2.81 -1 -1 -2.805 -1 -1 -2.8
-1 -1 -2.795 -1 -1 -2.79 -1 -1 -2.785 -1
-1 -2.78 -1 -1 -2.775 -1 -1 -2.77 -1 -1
-2.765 -1 -1 -2.76 -1 -1 -2.755 -1 -1 -2.75
-1 -1 -2.745 -1 -1 -2.74 -1 -1 -2.735 -1
-1 -2.73 -1 -1 -2.725 -1 -1 -2.72 -1 -1
-2.715 -1 -1 -2.71 -1 -1 -2.705 -1 -1 -2.7
-1 -1 -2.695 -1 -1 -2.69 -1 -1 -2.685 -1
-1 -2.68 -1 -1 -2.675 -1 -1 -2.67 -1 -1
-2.665 -1 -1 -2.66 -1 -1 -2.655 -1 -1 -2.65
-1 -1 -2.645 -1 -1 -2.64 -1 -1 -2.635 -1
-1 -2.63 -1 -1 -2.625 -1 -1 -2.62 -1 -1
-2.615 -1 -1 -2.61 -1 -1 -2.605 -1 -1 -2.6
-1 -1 -2.595 -1 -1 -2.59 -1 -1 -2.585 -1
-1 -2.58 -1 -1 -2.575 -1 -1 -2.57 -1 -1
-2.565 -1 -1 -2.56 -1 -1 -2.555 -1 -1 -2.55
-1 -1 -2.545 -1 -1 -2.54 -1 -1 -2.535 -1
-1 -2.53 -1 -1 -2.525 -1 -1 -2.52 -1 -1
-2.515 -1 -1 -2.51 -1 -1 -2.505 -1 -1 -2.5
-1 -1 -2.495 -1 -1 -2.49 -1 -1 -2.485 -1
-1 -2.48 -1 -1 -2.475 -1 -1 -2.47 -1 -1
-2.465 -1 -1 -2.46 -1 -1 -2.455 -1 -1 -2.45
-1 -1 -2.445 -1 -1 -2.44 -1 -1 -2.435 -1
-1 -2.43 -1 -1 -2.425 -1 -1 -2.42 -1 -1
-2.415 -1 -1 -2.41 -1 -1 -2.405 -1 -1 -2.4
-1 -1 -2.395 -1 -1 -2.39 -1 -1 -2.385 -1
-1 -2.38 -1 -1 -2.375 -1 -1 -2.37 -1 -1
-2.365 -1 -1 -2.36 -1 -1 -2.355 -1 -1 -2.35
-1 -1 -2.345 -1 -1 -2.34 -1 -1 -2.335 -1
-1 -2.33 -1 -1 -2.325 -1 -1 -2.32 -1 -1
-2.315 -1 -1 -2.31 -1 -1 -2.305 -1 -1 -2.3
-1 -1 -2.295 -1 -1 -2.29 -1 -1 -2.285 -1
-1 -2.28 -1 -1 -2.275 -1 -1 -2.27 -1 -1
-2.265 -1 -1 -2.26 -1 -1 -2.255 -1 -1 -2.25
-1 -1 -2.245 -1 -1 -2.24 -1 -1 -2.235 -1
-1 -2.23 -1 -1 -2.225 -1 -1 -2.22 -1 -1
-2.215 -1 -1 -2.21 -1 -1 -2.205 -1 -1 -2.2
-1 -1 -2.195 -1 -1 -2.19 -1 -1 -2.185 -1
-1 -2.18 -1 -1 -2.175 -1 -1 -2.17 -1 -1
-2.165 -1 -1 -2.16 -1 -1 -2.155 -1 -1 -2.15
-1 -1 -2.145 -1 -1 -2.14 -1 -1 -2.135 -1
-1 -2.13 -1 -1 -2.125 -1 -1 -2.12 -1 -1
-2.115 -1 -1 -2.11 -1 -1 -2.105 -1 -1 -2.1
-1 -1 -2.095 -1 -1 -2.09 -1 -1 -2.085 -1
-1 -2.08 -1 -1 -2.075 -1 -1 -2.07 -1 -1
-2.065 -1 -1 -2.06 -1 -1 -2.055 -1 -1 -2.05
-1 -1 -2.045 -1 -1 -2.04 -1 -1 -2.035 -1
-1 -2.03 -1 -1 -2.025 -1 -1 -2.02 -1 -1
-2.015 -1 -1 -2.01 -1 -1 -2.005 -1 -1 -2
-1 -1 -1.995 -1 -1 -1.99 -1 -1 -1.985 -1
-1 -1.98 -1 -1 -1.975 -1 -1 -1.97 -1 -1
-1.965 -1 -1 -1.96 -1 -1 -1.955 -1 -1 -1.95
-1 -1 -1.945 -1 -1 -1.94 -1 -1 -1.935 -1
-1 -1.93 -1 -1 -1.925 -1 -1 -1.92 -1 -1
-1.915 -1 -1 -1.91 -1 -1 -1.905 -1 -1 -1.9
-1 -1 -1.895 -1 -1 -1.89 -1 -1 -1.885 -1
-1 -1.88 -1 -1 -1.875 -1 -1 -1.87 -1 -1
-1.865 -1 -1 -1.86 -1 -1 -1.855 -1 -1 -1.85
-1 -1 -1.845 -1 -1 -1.84 -1 -1 -1.835 -1
-1 -1.83 -1 -1 -1.825 -1 -1 -1.82 -1 -1
-1.815 -1 -1 -1.81 -1 -1 -1.805 -1 -1 -1.8
-1 -1 -1.795 -1 -1 -1.79 -1 -1 -1.785 -1
-1 -1.78 -1 -1 -1.775 -1 -1 -1.77 -1 -1
-1.765 -1 -1 -1.76 -1 -1 -1.755 -1 -1 -1.75
-1 -1 -1.745 -1 -1 -1.74 -1 -1 -1.735 -1
-1 -1.73 -1 -1 -1.725 -1 -1 -1.72 -1 -1
-1.715 -1 -1 -1.71 -1 -1 -1.705 -1 -1 -1.7
-1 -1 -1.695 -1 -1 -1.69 -1 -1 -1.685 -1
-1 -1.68 -1 -1 -1.675 -1 -1 -1.67 -1 -1
-1.665 -1 -1 -1.66 -1 -1 -1.655 -1 -1 -1.65
-1 -1 -1.645 -1 -1 -1.64 -1 -1 -1.635 -1
-1 -1.63 -1 -1 -1.625 -1 -1 -1.62 -1 -1
-1.615 -1 -1 -1.61 -1 -1 -1.605 -1 -1 -1.6
-1 -1 -1.595 -1 -1 -1.59 -1 -1 -1.585 -1
-1 -1.58 -1 -1 -1.575 -1 -1 -1.57 -1 -1
-1.565 -1 -1 -1.56 -1 -1 -1.555 -1 -1 -1.55
-1 -1 -1.545 -1 -1 -1.54 -1 -1 -1.535 -1
-1 -1.53 -1 -1 -1.525 -1 -1 -1.52 -1 -1
-1.515 -1 -1 -1.51 -1 -1 -1.505 -1 -1 -1.5
-1 -1 -1.495 -1 -1 -1.49 -1 -1 -1.485 -1
-1 -1.48 -1 -1 -1.475 -1 -1 -1.47 -1 -1
-1.465 -1 -1 -1.46 -1 -1 -1.455 -1 -1 -1.45
-1 -1 -1.445 -1 -1 -1.44 -1 -1 -1.435 -1
-1 -1.43 -1 -1 -1.425 -1 -1 -1.42 -1 -1
-1.415 -1 -1 -1.41 -1 -1 -1.405 -1 -1 -1.4
-1 -1 -1.395 -1 -1 -1.39 -1 -1 -1.385 -1
-1 -1.38 -1 -1 -1.375 -1 -1 -1.37 -1 -1
-1.365 -1 -1 -1.36 -1 -1 -1.355 -1 -1 -1.35
-1 -1 -1.345 -1 -1 -1.34 -1 -1 -1.335 -1
-1 -1.33 -1 -1 -1.325 -1 -1 -1.32 -1 -1
-1.315 -1 -1 -1.31 -1 -1 -1.305 -1 -1 -1.3
-1 -1 -1.295 -1 -1 -1.29 -1 -1 -1.285 -1
-1 -1.28 -1 -1 -1.275 -1 -1 -1.27 -1 -1
-1.265 -1 -1 -1.26 -1 -1 -1.255 -1 -1 -1.25
-1 -1 -1.245 -1 -1 -1.24 -1 -1 -1.235 -1
-1 -1.23 -1 -1 -1.225 -1 -1 -1.22 -1 -1
-1.215 -1 -1 -1.21 -1 -1 -1.205 -1 -1 -1.2
-1 -1 -1.195 -1 -1 -1.19 -1 -1 -1.185 -1
-1 -1.18 -1 -1 -1.175 -1 -1 -1.17 -1 -1
-1.165 -1 -1 -1.16 -1 -1 -1.155 -1 -1 -1.15
-1 -1 -1.145 -1 -1 -1.14 -1 -1 -1.135 -1
-1 -1.13 -1 -1 -1.125 -1 -1 -1.12 -1 -1
-1.115 -1 -1 -1.11 -1 -1 -1.105 -1 -1 -1.1
-1 -1 -1.095 -1 -1 -1.09 -1 -1 -1.085 -1
-1 -1.08 -1 -1 -1.075 -1 -1 -1.07 -1 -1
-1.065 -1 -1 -1.06 -1 -1 -1.055 -1 -1 -1.05
-1 -1 -1.045 -1 -1 -1.04 -1 -1 -1.035 -1
[...]
CELL_DATA 2000
FIELD attributes 5
cellID 1 2000 int
0 1 2 3 4 5 6 7 8 9 10
11 12 13 14 15 16 17 18 19 20
21 22 23 24 25 26 27 28 29 30
31 32 33 34 35 36 37 38 39 40
41 42 43 44 45 46 47 48 49 50
51 52 53 54 55 56 57 58 59 60
61 62 63 64 65 66 67 68 69 70
71 72 73 74 75 76 77 78 79 80
81 82 83 84 85 86 87 88 89 90
91 92 93 94 95 96 97 98 99 100
101 102 103 104 105 106 107 108 109 110
111 112 113 114 115 116 117 118 119 120
121 122 123 124 125 126 127 128 129 130
131 132 133 134 135 136 137 138 139 140
141 142 143 144 145 146 147 148 149 150
151 152 153 154 155 156 157 158 159 160
161 162 163 164 165 166 167 168 169 170
171 172 173 174 175 176 177 178 179 180
181 182 183 184 185 186 187 188 189 190
191 192 193 194 195 196 197 198 199 200
201 202 203 204 205 206 207 208 209 210
211 212 213 214 215 216 217 218 219 220
221 222 223 224 225 226 227 228 229 230
231 232 233 234 235 236 237 238 239 240
241 242 243 244 245 246 247 248 249 250
251 252 253 254 255 256 257 258 259 260
261 262 263 264 265 266 267 268 269 270
271 272 273 274 275 276 277 278 279 280
281 282 283 284 285 286 287 288 289 290
291 292 293 294 295 296 297 298 299 300
301 302 303 304 305 306 307 308 309 310
311 312 313 314 315 316 317 318 319 320
321 322 323 324 325 326 327 328 329 330
331 332 333 334 335 336 337 338 339 340
341 342 343 344 345 346 347 348 349 350
351 352 353 354 355 356 357 358 359 360
361 362 363 364 365 366 367 368 369 370
371 372 373 374 375 376 377 378 379 380
381 382 383 384 385 386 387 388 389 390
391 392 393 394 395 396 397 398 399 400
401 402 403 404 405 406 407 408 409 410
411 412 413 414 415 416 417 418 419 420
421 422 423 424 425 426 427 428 429 430
431 432 433 434 435 436 437 438 439 440
441 442 443 444 445 446 447 448 449 450
451 452 453 454 455 456 457 458 459 460
461 462 463 464 465 466 467 468 469 470
471 472 473 474 475 476 477 478 479 480
481 482 483 484 485 486 487 488 489 490
491 492 493 494 495 496 497 498 499 500
501 502 503 504 505 506 507 508 509 510
511 512 513 514 515 516 517 518 519 520
521 522 523 524 525 526 527 528 529 530
531 532 533 534 535 536 537 538 539 540
541 542 543 544 545 546 547 548 549 550
551 552 553 554 555 556 557 558 559 560
561 562 563 564 565 566 567 568 569 570
571 572 573 574 575 576 577 578 579 580
581 582 583 584 585 586 587 588 589 590
591 592 593 594 595 596 597 598 599 600
601 602 603 604 605 606 607 608 609 610
611 612 613 614 615 616 617 618 619 620
621 622 623 624 625 626 627 628 629 630
631 632 633 634 635 636 637 638 639 640
641 642 643 644 645 646 647 648 649 650
651 652 653 654 655 656 657 658 659 660
661 662 663 664 665 666 667 668 669 670
671 672 673 674 675 676 677 678 679 680
681 682 683 684 685 686 687 688 689 690
691 692 693 694 695 696 697 698 699 700
701 702 703 704 705 706 707 708 709 710
711 712 713 714 715 716 717 718 719 720
721 722 723 724 725 726 727 728 729 730
731 732 733 734 735 736 737 738 739 740
741 742 743 744 745 746 747 748 749 750
751 752 753 754 755 756 757 758 759 760
761 762 763 764 765 766 767 768 769 770
771 772 773 774 775 776 777 778 779 780
781 782 783 784 785 786 787 788 789 790
791 792 793 794 795 796 797 798 799 800
801 802 803 804 805 806 807 808 809 810
811 812 813 814 815 816 817 818 819 820
821 822 823 824 825 826 827 828 829 830
831 832 833 834 835 836 837 838 839 840
841 842 843 844 845 846 847 848 849 850
851 852 853 854 855 856 857 858 859 860
861 862 863 864 865 866 867 868 869 870
871 872 873 874 875 876 877 878 879 880
881 882 883 884 885 886 887 888 889 890
891 892 893 894 895 896 897 898 899 900
901 902 903 904 905 906 907 908 909 910
911 912 913 914 915 916 917 918 919 920
921 922 923 924 925 926 927 928 929 930
931 932 933 934 935 936 937 938 939 940
941 942 943 944 945 946 947 948 949 950
951 952 953 954 955 956 957 958 959 960
961 962 963 964 965 966 967 968 969 970
971 972 973 974 975 976 977 978 979 980
981 982 983 984 985 986 987 988 989 990
991 992 993 994 995 996 997 998 999 1000
1001 1002 1003 1004 1005 1006 1007 1008 1009 1010
1011 1012 1013 1014 1015 1016 1017 1018 1019 1020
1021 1022 1023 1024 1025 1026 1027 1028 1029 1030
1031 1032 1033 1034 1035 1036 1037 1038 1039 1040
1041 1042 1043 1044 1045 1046 1047 1048 1049 1050
1051 1052 1053 1054 1055 1056 1057 1058 1059 1060
1061 1062 1063 1064 1065 1066 1067 1068 1069 1070
1071 1072 1073 1074 1075 1076 1077 1078 1079 1080
1081 1082 1083 1084 1085 1086 1087 1088 1089 1090
1091 1092 1093 1094 1095 1096 1097 1098 1099 1100
1101 1102 1103 1104 1105 1106 1107 1108 1109 1110
1111 1112 1113 1114 1115 1116 1117 1118 1119 1120
1121 1122 1123 1124 1125 1126 1127 1128 1129 1130
1131 1132 1133 1134 1135 1136 1137 1138 1139 1140
1141 1142 1143 1144 1145 1146 1147 1148 1149 1150
1151 1152 1153 1154 1155 1156 1157 1158 1159 1160
1161 1162 1163 1164 1165 1166 1167 1168 1169 1170
1171 1172 1173 1174 1175 1176 1177 1178 1179 1180
1181 1182 1183 1184 1185 1186 1187 1188 1189 1190
1191 1192 1193 1194 1195 1196 1197 1198 1199 1200
1201 1202 1203 1204 1205 1206 1207 1208 1209 1210
1211 1212 1213 1214 1215 1216 1217 1218 1219 1220
1221 1222 1223 1224 1225 1226 1227 1228 1229 1230
1231 1232 1233 1234 1235 1236 1237 1238 1239 1240
1241 1242 1243 1244 1245 1246 1247 1248 1249 1250
1251 1252 1253 1254 1255 1256 1257 1258 1259 1260
1261 1262 1263 1264 1265 1266 1267 1268 1269 1270
1271 1272 1273 1274 1275 1276 1277 1278 1279 1280
1281 1282 1283 1284 1285 1286 1287 1288 1289 1290
1291 1292 1293 1294 1295 1296 1297 1298 1299 1300
1301 1302 1303 1304 1305 1306 1307 1308 1309 1310
1311 1312 1313 1314 1315 1316 1317 1318 1319 1320
1321 1322 1323 1324 1325 1326 1327 1328 1329 1330
1331 1332 1333 1334 1335 1336 1337 1338 1339 1340
1341 1342 1343 1344 1345 1346 1347 1348 1349 1350
1351 1352 1353 1354 1355 1356 1357 1358 1359 1360
1361 1362 1363 1364 1365 1366 1367 1368 1369 1370
1371 1372 1373 1374 1375 1376 1377 1378 1379 1380
1381 1382 1383 1384 1385 1386 1387 1388 1389 1390
1391 1392 1393 1394 1395 1396 1397 1398 1399 1400
1401 1402 1403 1404 1405 1406 1407 1408 1409 1410
1411 1412 1413 1414 1415 1416 1417 1418 1419 1420
1421 1422 1423 1424 1425 1426 1427 1428 1429 1430
1431 1432 1433 1434 1435 1436 1437 1438 1439 1440
1441 1442 1443 1444 1445 1446 1447 1448 1449 1450
1451 1452 1453 1454 1455 1456 1457 1458 1459 1460
1461 1462 1463 1464 1465 1466 1467 1468 1469 1470
1471 1472 1473 1474 1475 1476 1477 1478 1479 1480
1481 1482 1483 1484 1485 1486 1487 1488 1489 1490
1491 1492 1493 1494 1495 1496 1497 1498 1499 1500
1501 1502 1503 1504 1505 1506 1507 1508 1509 1510
1511 1512 1513 1514 1515 1516 1517 1518 1519 1520
1521 1522 1523 1524 1525 1526 1527 1528 1529 1530
1531 1532 1533 1534 1535 1536 1537 1538 1539 1540
1541 1542 1543 1544 1545 1546 1547 1548 1549 1550
1551 1552 1553 1554 1555 1556 1557 1558 1559 1560
1561 1562 1563 1564 1565 1566 1567 1568 1569 1570
1571 1572 1573 1574 1575 1576 1577 1578 1579 1580
1581 1582 1583 1584 1585 1586 1587 1588 1589 1590
1591 1592 1593 1594 1595 1596 1597 1598 1599 1600
1601 1602 1603 1604 1605 1606 1607 1608 1609 1610
1611 1612 1613 1614 1615 1616 1617 1618 1619 1620
1621 1622 1623 1624 1625 1626 1627 1628 1629 1630
1631 1632 1633 1634 1635 1636 1637 1638 1639 1640
1641 1642 1643 1644 1645 1646 1647 1648 1649 1650
1651 1652 1653 1654 1655 1656 1657 1658 1659 1660
1661 1662 1663 1664 1665 1666 1667 1668 1669 1670
1671 1672 1673 1674 1675 1676 1677 1678 1679 1680
1681 1682 1683 1684 1685 1686 1687 1688 1689 1690
1691 1692 1693 1694 1695 1696 1697 1698 1699 1700
1701 1702 1703 1704 1705 1706 1707 1708 1709 1710
1711 1712 1713 1714 1715 1716 1717 1718 1719 1720
1721 1722 1723 1724 1725 1726 1727 1728 1729 1730
1731 1732 1733 1734 1735 1736 1737 1738 1739 1740
1741 1742 1743 1744 1745 1746 1747 1748 1749 1750
1751 1752 1753 1754 1755 1756 1757 1758 1759 1760
1761 1762 1763 1764 1765 1766 1767 1768 1769 1770
1771 1772 1773 1774 1775 1776 1777 1778 1779 1780
1781 1782 1783 1784 1785 1786 1787 1788 1789 1790
1791 1792 1793 1794 1795 1796 1797 1798 1799 1800
1801 1802 1803 1804 1805 1806 1807 1808 1809 1810
1811 1812 1813 1814 1815 1816 1817 1818 1819 1820
1821 1822 1823 1824 1825 1826 1827 1828 1829 1830
1831 1832 1833 1834 1835 1836 1837 1838 1839 1840
1841 1842 1843 1844 1845 1846 1847 1848 1849 1850
1851 1852 1853 1854 1855 1856 1857 1858 1859 1860
1861 1862 1863 1864 1865 1866 1867 1868 1869 1870
1871 1872 1873 1874 1875 1876 1877 1878 1879 1880
1881 1882 1883 1884 1885 1886 1887 1888 1889 1890
1891 1892 1893 1894 1895 1896 1897 1898 1899 1900
1901 1902 1903 1904 1905 1906 1907 1908 1909 1910
1911 1912 1913 1914 1915 1916 1917 1918 1919 1920
1921 1922 1923 1924 1925 1926 1927 1928 1929 1930
1931 1932 1933 1934 1935 1936 1937 1938 1939 1940
1941 1942 1943 1944 1945 1946 1947 1948 1949 1950
1951 1952 1953 1954 1955 1956 1957 1958 1959 1960
1961 1962 1963 1964 1965 1966 1967 1968 1969 1970
1971 1972 1973 1974 1975 1976 1977 1978 1979 1980
1981 1982 1983 1984 1985 1986 1987 1988 1989 1990
1991 1992 1993 1994 1995 1996 1997 1998 1999 
magU 1 2000 float
1.66295e-12 1.57543e-12 1.80883e-12 1.57543e-12 1.66295e-12 1.63378e-12 1.4879e-12 2.04222e-12 1.37121e-12 2.01305e-12 1.57543e-12
1.92552e-12 1.4879e-12 1.89635e-12 1.7213e-12 2.1881e-12 1.92552e-12 2.15892e-12 1.98387e-12 1.63378e-12 1.92552e-12
1.9547e-12 1.57543e-12 1.89635e-12 1.63378e-12 1.7213e-12 1.42956e-12 1.75048e-12 1.37121e-12 1.57543e-12 1.40038e-12
1.40038e-12 1.28368e-12 9.62762e-13 1.34203e-12 1.25451e-12 1.22533e-12 1.31286e-12 1.16698e-12 1.34203e-12 9.91936e-13
1.19616e-12 1.05029e-12 1.40038e-12 9.33587e-13 1.31286e-12 1.02111e-12 9.62762e-13 1.05029e-12 1.07946e-12 9.04413e-13
9.04413e-13 7.29365e-13 9.33587e-13 8.16889e-13 1.13781e-12 8.75238e-13 1.42956e-12 7.0019e-13 1.31286e-12 8.46063e-13
1.02111e-12 1.16698e-12 8.75238e-13 1.10863e-12 1.07946e-12 1.07946e-12 9.62762e-13 9.91936e-13 7.0019e-13 9.62762e-13
1.16698e-12 7.29365e-13 9.62762e-13 5.54317e-13 8.75238e-13 7.0019e-13 7.0019e-13 6.41841e-13 7.29365e-13 5.54317e-13
5.54317e-13 6.71016e-13 6.41841e-13 6.12667e-13 6.71016e-13 6.12667e-13 4.95968e-13 4.95968e-13 4.95968e-13 4.37619e-13
5.25143e-13 4.08444e-13 5.25143e-13 4.08444e-13 3.20921e-13 2.62571e-13 3.7927e-13 3.50095e-13 2.91746e-13 6.12667e-13
4.37619e-13 6.12667e-13 4.95968e-13 4.08444e-13 7.29365e-13 3.20921e-13 7.5854e-13 4.95968e-13 7.5854e-13 6.71016e-13
8.75238e-13 6.71016e-13 8.75238e-13 9.62762e-13 8.16889e-13 9.33587e-13 7.0019e-13 1.02111e-12 7.29365e-13 6.71016e-13
8.16889e-13 5.54317e-13 7.87714e-13 6.71016e-13 8.75238e-13 7.0019e-13 7.29365e-13 6.41841e-13 7.0019e-13 6.71016e-13
7.5854e-13 4.95968e-13 5.83492e-13 5.83492e-13 5.54317e-13 3.7927e-13 4.95968e-13 1.75048e-13 4.37619e-13 1.16698e-13
4.08444e-13 1.16698e-13 5.25143e-13 2.33397e-13 4.08444e-13 4.37619e-13 4.66794e-13 2.62571e-13 3.50095e-13 2.33397e-13
2.04222e-13 8.75238e-14 2.62571e-13 1.75048e-13 1.75048e-13 3.52779e-26 2.91746e-14 2.91746e-14 8.75238e-14 5.83492e-14
2.04222e-13 8.75238e-14 5.83492e-14 1.16698e-13 8.75238e-14 1.16698e-13 5.83492e-14 1.75048e-13 8.75238e-14 5.83492e-14
1.12965e-26 1.45873e-13 5.83492e-14 4.08444e-13 5.54317e-13 5.25143e-13 7.0019e-13 4.95968e-13 7.5854e-13 2.04222e-13
6.41841e-13 1.45873e-13 4.66794e-13 8.75238e-14 5.54317e-13 6.66303e-26 6.71016e-13 2.91746e-14 4.95968e-13 1.45873e-13
5.54317e-13 1.75048e-13 6.12667e-13 1.75048e-13 6.12667e-13 2.62571e-13 6.71016e-13 2.04222e-13 5.54317e-13 2.91746e-13
5.83492e-13 4.95968e-13 7.29365e-13 6.12667e-13 9.91936e-13 8.46063e-13 8.75238e-13 8.75238e-13 1.13781e-12 1.05029e-12
9.04413e-13 1.31286e-12 7.0019e-13 1.57543e-12 6.71016e-13 1.37121e-12 9.62762e-13 1.37121e-12 1.07946e-12 1.02111e-12
1.05029e-12 1.13781e-12 8.46063e-13 1.31286e-12 8.75238e-13 8.46063e-13 8.16889e-13 9.62762e-13 7.0019e-13 9.62762e-13
4.66794e-13 7.29365e-13 2.62571e-13 5.83492e-13 2.91746e-13 5.54317e-13 5.83492e-14 3.20921e-13 1.75048e-13 1.75048e-13
1.45873e-13 2.91746e-13 5.83492e-14 4.37619e-13 5.83492e-14 4.08444e-13 3.96923e-26 1.75048e-13 4.71928e-26 2.91746e-14
2.91746e-14 1.45873e-13 2.33397e-13 2.04222e-13 2.62571e-13 1.75048e-13 1.75048e-13 2.04222e-13 8.75238e-14 2.62571e-13
8.75238e-14 2.62571e-13 2.91746e-14 5.25143e-13 2.63669e-26 3.50095e-13 1.75048e-13 2.62571e-13 5.83492e-14 1.75048e-13
8.75238e-14 2.91746e-13 1.45873e-13 4.66794e-13 1.16698e-13 2.91746e-13 7.01897e-26 3.7927e-13 2.91746e-14 6.71016e-13
1.16698e-13 5.25143e-13 5.97553e-26 3.50095e-13 2.91746e-14 2.04222e-13 8.75238e-14 1.75048e-13 3.50095e-13 3.20921e-13
3.7927e-13 2.91746e-13 3.50095e-13 3.50095e-13 2.91746e-13 4.95968e-13 3.50095e-13 4.66794e-13 3.20921e-13 4.37619e-13
1.45873e-13 3.20921e-13 1.16698e-13 2.33397e-13 2.33397e-13 1.45873e-13 5.54317e-13 5.54317e-13 1.13781e-12 1.63378e-12
2.56736e-12 3.5593e-12 4.84298e-12 6.82686e-12 9.3067e-12 1.27201e-11 1.77673e-11 2.35147e-11 3.22379e-11 4.28575e-11
5.84659e-11 7.77795e-11 1.04708e-10 1.39834e-10 1.86834e-10 2.47955e-10 3.3049e-10 4.38378e-10 5.81333e-10 7.69568e-10
1.01679e-09 1.34183e-09 1.76856e-09 2.32662e-09 3.05776e-09 4.01037e-09 5.25458e-09 6.87246e-09 8.9772e-09 1.17064e-08
1.52449e-08 1.9823e-08 2.57363e-08 3.33642e-08 4.31869e-08 5.5819e-08 7.2034e-08 9.28185e-08 1.19419e-07 1.53406e-07
1.96763e-07 2.51986e-07 3.22207e-07 4.11358e-07 5.24359e-07 6.67354e-07 8.48017e-07 1.07589e-06 1.36285e-06 1.7236e-06
2.17639e-06 2.74374e-06 3.45346e-06 4.33979e-06 5.4448e-06 6.82014e-06 8.52904e-06 1.06488e-05 1.32736e-05 1.65184e-05
2.05225e-05 2.54553e-05 3.15213e-05 3.89681e-05 4.80938e-05 5.92574e-05 7.28898e-05 8.95072e-05 0.000109727 0.000134287
0.000164064 0.000200102 0.000243637 0.000296133 0.000359319 0.000435232 0.000526266 0.00063523 0.000765413 0.000920654
0.00110543 0.00132494 0.00158521 0.00189324 0.00225707 0.002686 0.00319067 0.00378332 0.0044779 0.00529036
0.00623881 0.00734382 0.00862864 0.0101195 0.0118461 0.0138414 0.0161428 0.0187915 0.0218339 0.0253212
0.0293101 0.0338633 0.0390496 0.0449448 0.0516314 0.0591997 0.0677477 0.0773816 0.088216 0.100374
0.113989 0.129201 0.146162 0.165032 0.185979 0.209182 0.234829 0.263115 0.294243 0.328427
0.365883 0.406838 0.451522 0.50017 0.553021 0.610318 0.672304 0.739222 0.811315 0.888825
0.971989 1.06104 1.15621 1.25771 1.36576 1.48056 1.60231 1.73118 1.86734 2.01095
2.16216 2.32109 2.48785 2.66254 2.84526 3.03605 3.23499 3.4421 3.6574 3.88092
4.11263 4.35253 4.60057 4.85672 5.1209 5.39307 5.67313 5.961 6.25658 6.55976
6.87044 7.18848 7.51377 7.84618 8.18556 8.53178 8.8847 9.24417 9.61005 9.98219
10.3604 10.7446 11.1347 11.5303 11.9315 12.3381 12.7499 13.1668 13.5886 14.0152
14.4465 14.8823 15.3225 15.767 16.2157 16.6683 17.1249 17.5853 18.0493 18.5169
18.988 19.4624 19.94 20.4209 20.9047 21.3916 21.8813 22.3738 22.869 23.3668
23.8672 24.3701 24.8753 25.3829 25.8927 26.4047 26.9188 27.435 27.9532 28.4733
28.9953 29.5191 30.0447 30.572 31.101 31.6316 32.1638 32.6975 33.2328 33.7694
34.3075 34.8469 35.3877 35.9297 36.473 37.0175 37.5632 38.1101 38.6581 39.2071
39.7573 40.3085 40.8606 41.4138 41.9679 42.5229 43.0788 43.6357 44.1933 44.7518
45.3112 45.8713 46.4321 46.9938 47.5561 48.1192 48.683 49.2475 49.8126 50.3783
50.9447 51.5117 52.0794 52.6475 53.2163 53.7856 54.3555 54.9259 55.4968 56.0683
56.6402 57.2126 57.7855 58.3588 58.9326 59.5068 60.0815 60.6566 61.2321 61.808
62.3843 62.961 63.5381 64.1155 64.6933 65.2714 65.8499 66.4288 67.0079 67.5874
68.1672 68.7474 69.3278 69.9085 70.4895 71.0708 71.6524 72.2343 72.8164 73.3988
73.9814 74.5643 75.1475 75.7309 76.3145 76.8984 77.4825 78.0668 78.6514 79.2362
79.8211 80.4063 80.9917 81.5773 82.1631 82.7491 83.3352 83.9216 84.5081 85.0949
85.6818 86.2688 86.8561 87.4435 88.031 88.6188 89.2067 89.7947 90.3829 90.9712
91.5597 92.1484 92.7371 93.326 93.9151 94.5043 95.0936 95.683 96.2726 96.8623
97.4521 98.042 98.6321 99.2222 99.8125 100.403 100.993 101.584 102.175 102.766
103.356 103.947 104.539 105.13 105.721 106.313 106.904 107.496 108.087 108.679
109.271 109.863 110.455 111.047 111.639 112.231 112.824 113.416 114.008 114.601
115.194 115.786 116.379 116.972 117.565 118.158 118.751 119.344 119.937 120.53
121.123 121.717 122.31 122.903 123.497 124.09 124.684 125.278 125.871 126.465
127.059 127.653 128.246 128.84 129.434 130.028 130.622 131.216 131.811 132.405
132.999 133.593 134.187 134.782 135.376 135.97 136.565 137.159 137.754 138.348
138.943 139.537 140.132 140.726 141.321 141.916 142.51 143.105 143.7 144.294
144.889 145.484 146.079 146.674 147.268 147.863 148.458 149.053 149.648 150.243
150.838 151.433 152.028 152.623 153.218 153.812 154.407 155.002 155.597 156.192
156.787 157.383 157.978 158.573 159.168 159.763 160.358 160.953 161.548 162.143
162.738 163.333 163.928 164.523 165.118 165.713 166.308 166.903 167.498 168.093
168.688 169.283 169.878 170.473 171.068 171.663 172.258 172.853 173.447 174.042
174.637 175.232 175.827 176.422 177.016 177.611 178.206 178.801 179.395 179.99
180.585 181.179 181.774 182.369 182.963 183.558 184.152 184.747 185.341 185.935
186.53 187.124 187.718 188.313 188.907 189.501 190.095 190.689 191.283 191.877
192.471 193.065 193.659 194.253 194.847 195.441 196.034 196.628 197.222 197.815
198.409 199.002 199.595 200.189 200.782 201.375 201.968 202.561 203.154 203.747
204.34 204.933 205.526 206.118 206.711 207.303 207.896 208.488 209.08 209.672
210.264 210.856 211.448 212.04 212.632 213.223 213.815 214.406 214.997 215.589
216.18 216.771 217.361 217.952 218.543 219.133 219.723 220.314 220.904 221.494
222.083 222.673 223.263 223.852 224.441 225.03 225.619 226.208 226.796 227.384
227.973 228.56 229.148 229.736 230.323 230.91 231.497 232.084 232.671 233.257
233.843 234.429 235.014 235.6 236.185 236.769 237.354 237.938 238.522 239.105
239.689 240.272 240.854 241.437 242.018 242.6 243.181 243.762 244.342 244.922
245.502 246.081 246.66 247.238 247.816 248.393 248.97 249.546 250.121 250.697
251.271 251.845 252.418 252.991 253.563 254.134 254.705 255.274 255.843 256.412
256.979 257.546 258.111 258.676 259.24 259.803 260.365 260.925 261.485 262.043
262.601 263.157 263.711 264.265 264.817 265.367 265.916 266.464 267.01 267.554
268.096 268.637 269.175 269.712 270.246 270.779 271.309 271.836 272.362 272.884
273.404 273.921 274.435 274.947 275.454 275.959 276.46 276.958 277.452 277.941
278.427 278.908 279.385 279.858 280.325 280.787 281.244 281.696 282.141 282.581
283.015 283.442 283.863 284.276 284.682 285.081 285.472 285.855 286.23 286.597
286.954 287.303 287.642 287.972 288.292 288.602 288.901 289.191 289.469 289.738
289.995 290.241 290.476 290.701 290.914 291.116 291.307 291.487 291.656 291.815
291.963 292.101 292.23 292.348 292.457 292.557 292.649 292.732 292.807 292.875
292.936 292.991 293.04 293.082 293.12 293.153 293.182 293.206 293.227 293.245
293.26 293.273 293.283 293.291 293.298 293.303 293.307 293.309 293.311 293.313
293.313 293.313 293.313 293.312 293.312 293.31 293.309 293.308 293.306 293.305
293.303 293.302 293.3 293.299 293.298 293.297 293.295 293.294 293.293 293.292
293.291 293.291 293.29 293.289 293.288 293.288 293.287 293.286 293.286 293.285
293.285 293.284 293.284 293.284 293.283 293.283 293.283 293.282 293.282 293.282
293.282 293.281 293.281 293.281 293.281 293.281 293.28 293.28 293.28 293.28
293.28 293.28 293.28 293.279 293.279 293.279 293.279 293.279 293.279 293.279
293.279 293.279 293.279 293.279 293.279 293.279 293.279 293.278 293.278 293.278
293.278 293.278 293.278 293.278 293.278 293.278 293.278 293.278 293.278 293.278
293.278 293.278 293.278 293.278 293.278 293.278 293.278 293.278 293.278 293.278
293.278 293.278 293.278 293.278 293.278 293.278 293.278 293.278 293.278 293.278
293.278 293.278 293.278 293.278 293.278 293.278 293.278 293.278 293.278 293.278
293.278 293.278 293.278 293.278 293.278 293.278 293.278 293.278 293.278 293.278
293.279 293.279 293.279 293.279 293.279 293.279 293.279 293.279 293.279 293.279
293.279 293.279 293.279 293.279 293.279 293.279 293.279 293.279 293.279 293.279
293.279 293.279 293.279 293.279 293.279 293.279 293.279 293.279 293.279 293.279
293.279 293.279 293.279 293.279 293.279 293.279 293.279 293.279 293.279 293.279