# vtk DataFile Version 2.0
shockTube.COARSE
ASCII
DATASET UNSTRUCTURED_GRID
POINTS 2004 float
-5 -1 -1 -4.98 -1 -1 -4.96 -1 -1 -4.94 -1
-1 -4.92 -1 -1 -4.9 -1 -1 -4.88 -1 -1
-4.86 -1 -1 -4.84 -1 -1 -4.82 -1 -1 -4.8
-1 -1 -4.78 -1 -1 -4.76 -1 -1 -4.74 -1
-1 -4.72 -1 -1 -4.7 -1 -1 -4.68 -1 -1
-4.66 -1 -1 -4.64 -1 -1 -4.62 -1 -1 -4.6
-1 -1 -4.58 -1 -1 -4.56 -1 -1 -4.54 -1
-1 -4.52 -1 -1 -4.5 -1 -1 -4.48 -1 -1
-4.46 -1 -1 -4.44 -1 -1 -4.42 -1 -1 -4.4
-1 -1 -4.38 -1 -1 -4.36 -1 -1 -4.34 -1
-1 -4.32 -1 -1 -4.3 -1 -1 -4.28 -1 -1
-4.26 -1 -1 -4.24 -1 -1 -4.22 -1 -1 -4.2
-1 -1 -4.18 -1 -1 -4.16 -1 -1 -4.14 -1
-1 -4.12 -1 -1 -4.1 -1 -1 -4.08 -1 -1
-4.06 -1 -1 -4.04 -1 -1 -4.02 -1 -1 -4
-1 -1 -3.98 -1 -1 -3.96 -1 -1 -3.94 -1
-1 -3.92 -1 -1 -3.9 -1 -1 -3.88 -1 -1
-3.86 -1 -1 -3.84 -1 -1 -3.82 -1 -1 -3.8
-1 -1 -3.78 -1 -1 -3.76 -1 -1 -3.74 -1
-1 -3.72 -1 -1 -3.7 -1 -1 -3.68 -1 -1
-3.66 -1 -1 -3.64 -1 -1 -3.62 -1 -1 -3.6
-1 -1 -3.58 -1 -1 -3.56 -1 -1 -3.54 -1
-1 -3.52 -1 -1 -3.5 -1 -1 -3.48 -1 -1
-3.46 -1 -1 -3.44 -1 -1 -3.42 -1 -1 -3.4
-1 -1 -3.38 -1 -1 -3.36 -1 -1 -3.34 -1
-1 -3.32 -1 -1 -3.3 -1 -1 -3.28 -1 -1
-3.26 -1 -1 -3.24 -1 -1 -3.22 -1 -1 -3.2
-1 -1 -3.18 -1 -1 -3.16 -1 -1 -3.14 -1
-1 -3.12 -1 -1 -3.1 -1 -1 -3.08 -1 -1
-3.06 -1 -1 -3.04 -1 -1 -3.02 -1 -1 -3
-1 -1 -2.98 -1 -1 -2.96 -1 -1 -2.94 -1
-1 -2.92 -1 -1 -2.9 -1 -1 -2.88 -1 -1
-2.86 -1 -1 -2.84 -1 -1 -2.82 -1 -1 -2.8
-1 -1 -2.78 -1 -1 -2.76 -1 -1 -2.74 -1
-1 -2.72 -1 -1 -2.7 -1 -1 -2.68 -1 -1
-2.66 -1 -1 -2.64 -1 -1 -2.62 -1 -1 -2.6
-1 -1 -2.58 -1 -1 -2.56 -1 -1 -2.54 -1
-1 -2.52 -1 -1 -2.5 -1 -1 -2.48 -1 -1
-2.46 -1 -1 -2.44 -1 -1 -2.42 -1 -1 -2.4
-1 -1 -2.38 -1 -1 -2.36 -1 -1 -2.34 -1
-1 -2.32 -1 -1 -2.3 -1 -1 -2.28 -1 -1
-2.26 -1 -1 -2.24 -1 -1 -2.22 -1 -1 -2.2
-1 -1 -2.18 -1 -1 -2.16 -1 -1 -2.14 -1
-1 -2.12 -1 -1 -2.1 -1 -1 -2.08 -1 -1
-2.06 -1 -1 -2.04 -1 -1 -2.02 -1 -1 -2
-1 -1 -1.98 -1 -1 -1.96 -1 -1 -1.94 -1
-1 -1.92 -1 -1 -1.9 -1 -1 -1.88 -1 -1
-1.86 -1 -1 -1.84 -1 -1 -1.82 -1 -1 -1.8
-1 -1 -1.78 -1 -1 -1.76 -1 -1 -1.74 -1
-1 -1.72 -1 -1 -1.7 -1 -1 -1.68 -1 -1
-1.66 -1 -1 -1.64 -1 -1 -1.62 -1 -1 -1.6
-1 -1 -1.58 -1 -1 -1.56 -1 -1 -1.54 -1
-1 -1.52 -1 -1 -1.5 -1 -1 -1.48 -1 -1
-1.46 -1 -1 -1.44 -1 -1 -1.42 -1 -1 -1.4
-1 -1 -1.38 -1 -1 -1.36 -1 -1 -1.34 -1
-1 -1.32 -1 -1 -1.3 -1 -1 -1.28 -1 -1
-1.26 -1 -1 -1.24 -1 -1 -1.22 -1 -1 -1.2
-1 -1 -1.18 -1 -1 -1.16 -1 -1 -1.14 -1
-1 -1.12 -1 -1 -1.1 -1 -1 -1.08 -1 -1
-1.06 -1 -1 -1.04 -1 -1 -1.02 -1 -1 -1
-1 -1 -0.98 -1 -1 -0.96 -1 -1 -0.94 -1
-1 -0.92 -1 -1 -0.9 -1 -1 -0.88 -1 -1
-0.86 -1 -1 -0.84 -1 -1 -0.82 -1 -1 -0.8
-1 -1 -0.78 -1 -1 -0.76 -1 -1 -0.74 -1
-1 -0.72 -1 -1 -0.7 -1 -1 -0.68 -1 -1
-0.66 -1 -1 -0.64 -1 -1 -0.62 -1 -1 -0.6
-1 -1 -0.58 -1 -1 -0.56 -1 -1 -0.54 -1
-1 -0.52 -1 -1 -0.5 -1 -1 -0.48 -1 -1
-0.46 -1 -1 -0.44 -1 -1 -0.42 -1 -1 -0.4
-1 -1 -0.38 -1 -1 -0.36 -1 -1 -0.34 -1
-1 -0.32 -1 -1 -0.3 -1 -1 -0.28 -1 -1
-0.26 -1 -1 -0.24 -1 -1 -0.22 -1 -1 -0.2
-1 -1 -0.18 -1 -1 -0.16 -1 -1 -0.14 -1
-1 -0.12 -1 -1 -0.1 -1 -1 -0.08 -1 -1
-0.06 -1 -1 -0.04 -1 -1 -0.02 -1 -1 0
-1 -1 0.02 -1 -1 0.04 -1 -1 0.06 -1
-1 0.08 -1 -1 0.1 -1 -1 0.12 -1 -1
0.14 -1 -1 0.16 -1 -1 0.18 -1 -1 0.2
-1 -1 0.22 -1 -1 0.24 -1 -1 0.26 -1
-1 0.28 -1 -1 0.3 -1 -1 0.32 -1 -1
0.34 -1 -1 0.36 -1 -1 0.38 -1 -1 0.4
-1 -1 0.42 -1 -1 0.44 -1 -1 0.46 -1
-1 0.48 -1 -1 0.5 -1 -1 0.52 -1 -1
0.54 -1 -1 0.56 -1 -1 0.58 -1 -1 0.6
-1 -1 0.62 -1 -1 0.64 -1 -1 0.66 -1
-1 0.68 -1 -1 0.7 -1 -1 0.72 -1 -1
0.74 -1 -1 0.76 -1 -1 0.78 -1 -1 0.8
-1 -1 0.82 -1 -1 0.84 -1 -1 0.86 -1
-1 0.88 -1 -1 0.9 -1 -1 0.92 -1 -1
0.94 -1 -1 0.96 -1 -1 0.98 -1 -1 1
-1 -1 1.02 -1 -1 1.04 -1 -1 1.06 -1
-1 1.08 -1 -1 1.1 -1 -1 1.12 -1 -1
1.14 -1 -1 1.16 -1 -1 1.18 -1 -1 1.2
-1 -1 1.22 -1 -1 1.24 -1 -1 1.26 -1
-1 1.28 -1 -1 1.3 -1 -1 1.32 -1 -1
1.34 -1 -1 1.36 -1 -1 1.38 -1 -1 1.4
-1 -1 1.42 -1 -1 1.44 -1 -1 1.46 -1
-1 1.48 -1 -1 1.5 -1 -1 1.52 -1 -1
1.54 -1 -1 1.56 -1 -1 1.58 -1 -1 1.6
-1 -1 1.62 -1 -1 1.64 -1 -1 1.66 -1
-1 1.68 -1 -1 1.7 -1 -1 1.72 -1 -1
1.74 -1 -1 1.76 -1 -1 1.78 -1 -1 1.8
-1 -1 1.82 -1 -1 1.84 -1 -1 1.86 -1
-1 1.88 -1 -1 1.9 -1 -1 1.92 -1 -1
1.94 -1 -1 1.96 -1 -1 1.98 -1 -1 2
-1 -1 2.02 -1 -1 2.04 -1 -1 2.06 -1
-1 2.08 -1 -1 2.1 -1 -1 2.12 -1 -1
2.14 -1 -1 2.16 -1 -1 2.18 -1 -1 2.2
-1 -1 2.22 -1 -1 2.24 -1 -1 2.26 -1
-1 2.28 -1 -1 2.3 -1 -1 2.32 -1 -1
2.34 -1 -1 2.36 -1 -1 2.38 -1 -1 2.4
-1 -1 2.42 -1 -1 2.44 -1 -1 2.46 -1
-1 2.48 -1 -1 2.5 -1 -1 2.52 -1 -1
2.54 -1 -1 2.56 -1 -1 2.58 -1 -1 2.6
-1 -1 2.62 -1 -1 2.64 -1 -1 2.66 -1
-1 2.68 -1 -1 2.7 -1 -1 2.72 -1 -1
2.74 -1 -1 2.76 -1 -1 2.78 -1 -1 2.8
-1 -1 2.82 -1 -1 2.84 -1 -1 2.86 -1
-1 2.88 -1 -1 2.9 -1 -1 2.92 -1 -1
2.94 -1 -1 2.96 -1 -1 2.98 -1 -1 3
-1 -1 3.02 -1 -1 3.04 -1 -1 3.06 -1
-1 3.08 -1 -1 3.1 -1 -1 3.12 -1 -1
3.14 -1 -1 3.16 -1 -1 3.18 -1 -1 3.2
-1 -1 3.22 -1 -1 3.24 -1 -1 3.26 -1
-1 3.28 -1 -1 3.3 -1 -1 3.32 -1 -1
3.34 -1 -1 3.36 -1 -1 3.38 -1 -1 3.4
-1 -1 3.42 -1 -1 3.44 -1 -1 3.46 -1
-1 3.48 -1 -1 3.5 -1 -1 3.52 -1 -1
3.54 -1 -1 3.56 -1 -1 3.58 -1 -1 3.6
-1 -1 3.62 -1 -1 3.64 -1 -1 3.66 -1
-1 3.68 -1 -1 3.7 -1 -1 3.72 -1 -1
3.74 -1 -1 3.76 -1 -1 3.78 -1 -1 3.8
-1 -1 3.82 -1 -1 3.84 -1 -1 3.86 -1
-1 3.88 -1 -1 3.9 -1 -1 3.92 -1 -1
3.94 -1 -1 3.96 -1 -1 3.98 -1 -1 4
-1 -1 4.02 -1 -1 4.04 -1 -1 4.06 -1
-1 4.08 -1 -1 4.1 -1 -1 4.12 -1 -1
4.14 -1 -1 4.16 -1 -1 4.18 -1 -1 4.2
-1 -1 4.22 -1 -1 4.24 -1 -1 4.26 -1
-1 4.28 -1 -1 4.3 -1 -1 4.32 -1 -1
4.34 -1 -1 4.36 -1 -1 4.38 -1 -1 4.4
-1 -1 4.42 -1 -1 4.44 -1 -1 4.46 -1
-1 4.48 -1 -1 4.5 -1 -1 4.52 -1 -1
4.54 -1 -1 4.56 -1 -1 4.58 -1 -1 4.6
-1 -1 4.62 -1 -1 4.64 -1 -1 4.66 -1
-1 4.68 -1 -1 4.7 -1 -1 4.72 -1 -1
4.74 -1 -1 4.76 -1 -1 4.78 -1 -1 4.8
-1 -1 4.82 -1 -1 4.84 -1 -1 4.86 -1
-1 4.88 -1 -1 4.9 -1 -1 4.92 -1 -1
4.94 -1 -1 4.96 -1 -1 4.98 -1 -1 5
-1 -1 -5 1 -1 -4.98 1 -1 -4.96 1
-1 -4.94 1 -1 -4.92 1 -1 -4.9 1 -1
-4.88 1 -1 -4.86 1 -1 -4.84 1 -1 -4.82
1 -1 -4.8 1 -1 -4.78 1 -1 -4.76 1
-1 -4.74 1 -1 -4.72 1 -1 -4.7 1 -1
-4.68 1 -1 -4.66 1 -1 -4.64 1 -1 -4.62
1 -1 -4.6 1 -1 -4.58 1 -1 -4.56 1
-1 -4.54 1 -1 -4.52 1 -1 -4.5 1 -1
-4.48 1 -1 -4.46 1 -1 -4.44 1 -1 -4.42
1 -1 -4.4 1 -1 -4.38 1 -1 -4.36 1
-1 -4.34 1 -1 -4.32 1 -1 -4.3 1 -1
-4.28 1 -1 -4.26 1 -1 -4.24 1 -1 -4.22
1 -1 -4.2 1 -1 -4.18 1 -1 -4.16 1
-1 -4.14 1 -1 -4.12 1 -1 -4.1 1 -1
-4.08 1 -1 -4.06 1 -1 -4.04 1 -1 -4.02
1 -1 -4 1 -1 -3.98 1 -1 -3.96 1
-1 -3.94 1 -1 -3.92 1 -1 -3.9 1 -1
-3.88 1 -1 -3.86 1 -1 -3.84 1 -1 -3.82
1 -1 -3.8 1 -1 -3.78 1 -1 -3.76 1
-1 -3.74 1 -1 -3.72 1 -1 -3.7 1 -1
-3.68 1 -1 -3.66 1 -1 -3.64 1 -1 -3.62
1 -1 -3.6 1 -1 -3.58 1 -1 -3.56 1
-1 -3.54 1 -1 -3.52 1 -1 -3.5 1 -1
-3.48 1 -1 -3.46 1 -1 -3.44 1 -1 -3.42
1 -1 -3.4 1 -1 -3.38 1 -1 -3.36 1
-1 -3.34 1 -1 -3.32 1 -1 -3.3 1 -1
-3.28 1 -1 -3.26 1 -1 -3.24 1 -1 -3.22
1 -1 -3.2 1 -1 -3.18 1 -1 -3.16 1
-1 -3.14 1 -1 -3.12 1 -1 -3.1 1 -1
-3.08 1 -1 -3.06 1 -1 -3.04 1 -1 -3.02
1 -1 -3 1 -1 -2.98 1 -1 -2.96 1
-1 -2.94 1 -1 -2.92 1 -1 -2.9 1 -1
-2.88 1 -1 -2.86 1 -1 -2.84 1 -1 -2.82
1 -1 -2.8 1 -1 -2.78 1 -1 -2.76 1
-1 -2.74 1 -1 -2.72 1 -1 -2.7 1 -1
-2.68 1 -1 -2.66 1 -1 -2.64 1 -1 -2.62
1 -1 -2.6 1 -1 -2.58 1 -1 -2.56 1
-1 -2.54 1 -1 -2.52 1 -1 -2.5 1 -1
-2.48 1 -1 -2.46 1 -1 -2.44 1 -1 -2.42
1 -1 -2.4 1 -1 -2.38 1 -1 -2.36 1
-1 -2.34 1 -1 -2.32 1 -1 -2.3 1 -1
-2.28 1 -1 -2.26 1 -1 -2.24 1 -1 -2.22
1 -1 -2.2 1 -1 -2.18 1 -1 -2.16 1
-1 -2.14 1 -1 -2.12 1 -1 -2.1 1 -1
-2.08 1 -1 -2.06 1 -1 -2.04 1 -1 -2.02
1 -1 -2 1 -1 -1.98 1 -1 -1.96 1
-1 -1.94 1 -1 -1.92 1 -1 -1.9 1 -1
-1.88 1 -1 -1.86 1 -1 -1.84 1 -1 -1.82
1 -1 -1.8 1 -1 -1.78 1 -1 -1.76 1
-1 -1.74 1 -1 -1.72 1 -1 -1.7 1 -1
-1.68 1 -1 -1.66 1 -1 -1.64 1 -1 -1.62
1 -1 -1.6 1 -1 -1.58 1 -1 -1.56 1
-1 -1.54 1 -1 -1.52 1 -1 -1.5 1 -1
-1.48 1 -1 -1.46 1 -1 -1.44 1 -1 -1.42
1 -1 -1.4 1 -1 -1.38 1 -1 -1.36 1
-1 -1.34 1 -1 -1.32 1 -1 -1.3 1 -1
-1.28 1 -1 -1.26 1 -1 -1.24 1 -1 -1.22
1 -1 -1.2 1 -1 -1.18 1 -1 -1.16 1
-1 -1.14 1 -1 -1.12 1 -1 -1.1 1 -1
-1.08 1 -1 -1.06 1 -1 -1.04 1 -1 -1.02
1 -1 -1 1 -1 -0.98 1 -1 -0.96 1
-1 -0.94 1 -1 -0.92 1 -1 -0.9 1 -1
-0.88 1 -1 -0.86 1 -1 -0.84 1 -1 -0.82
1 -1 -0.8 1 -1 -0.78 1 -1 -0.76 1
-1 -0.74 1 -1 -0.72 1 -1 -0.7 1 -1
-0.68 1 -1 -0.66 1 -1 -0.64 1 -1 -0.62
1 -1 -0.6 1 -1 -0.58 1 -1 -0.56 1
-1 -0.54 1 -1 -0.52 1 -1 -0.5 1 -1
-0.48 1 -1 -0.46 1 -1 -0.44 1 -1 -0.42
1 -1 -0.4 1 -1 -0.38 1 -1 -0.36 1
-1 -0.34 1 -1 -0.32 1 -1 -0.3 1 -1
-0.28 1 -1 -0.26 1 -1 -0.24 1 -1 -0.22
1 -1 -0.2 1 -1 -0.18 1 -1 -0.16 1
-1 -0.14 1 -1 -0.12 1 -1 -0.1 1 -1
-0.08 1 -1 -0.06 1 -1 -0.04 1 -1 -0.02
1 -1 0 1 -1 0.02 1 -1 0.04 1
-1 0.06 1 -1 0.08 1 -1 0.1 1 -1
0.12 1 -1 0.14 1 -1 0.16 1 -1 0.18
1 -1 0.2 1 -1 0.22 1 -1 0.24 1
-1 0.26 1 -1 0.28 1 -1 0.3 1 -1
0.32 1 -1 0.34 1 -1 0.36 1 -1 0.38
1 -1 0.4 1 -1 0.42 1 -1 0.44 1
-1 0.46 1 -1 0.48 1 -1 0.5 1 -1
0.52 1 -1 0.54 1 -1 0.56 1 -1 0.58
1 -1 0.6 1 -1 0.62 1 -1 0.64 1
-1 0.66 1 -1 0.68 1 -1 0.7 1 -1
0.72 1 -1 0.74 1 -1 0.76 1 -1 0.78
1 -1 0.8 1 -1 0.82 1 -1 0.84 1
-1 0.86 1 -1 0.88 1 -1 0.9 1 -1
0.92 1 -1 0.94 1 -1 0.96 1 -1 0.98
1 -1 1 1 -1 1.02 1 -1 1.04 1
-1 1.06 1 -1 1.08 1 -1 1.1 1 -1
1.12 1 -1 1.14 1 -1 1.16 1 -1 1.18
1 -1 1.2 1 -1 1.22 1 -1 1.24 1
-1 1.26 1 -1 1.28 1 -1 1.3 1 -1
1.32 1 -1 1.34 1 -1 1.36 1 -1 1.38
1 -1 1.4 1 -1 1.42 1 -1 1.44 1
-1 1.46 1 -1 1.48 1 -1 1.5 1 -1
1.52 1 -1 1.54 1 -1 1.56 1 -1 1.58
1 -1 1.6 1 -1 1.62 1 -1 1.64 1
-1 1.66 1 -1 1.68 1 -1 1.7 1 -1
1.72 1 -1 1.74 1 -1 1.76 1 -1 1.78
1 -1 1.8 1 -1 1.82 1 -1 1.84 1
-1 1.86 1 -1 1.88 1 -1 1.9 1 -1
1.92 1 -1 1.94 1 -1 1.96 1 -1 1.98
1 -1 2 1 -1 2.02 1 -1 2.04 1
-1 2.06 1 -1 2.08 1 -1 2.1 1 -1
2.12 1 -1 2.14 1 -1 2.16 1 -1 2.18
1 -1 2.2 1 -1 2.22 1 -1 2.24 1
-1 2.26 1 -1 2.28 1 -1 2.3 1 -1
2.32 1 -1 2.34 1 -1 2.36 1 -1 2.38
1 -1 2.4 1 -1 2.42 1 -1 2.44 1
-1 2.46 1 -1 2.48 1 -1 2.5 1 -1
2.52 1 -1 2.54 1 -1 2.56 1 -1 2.58
1 -1 2.6 1 -1 2.62 1 -1 2.64 1
-1 2.66 1 -1 2.68 1 -1 2.7 1 -1
2.72 1 -1 2.74 1 -1 2.76 1 -1 2.78
1 -1 2.8 1 -1 2.82 1 -1 2.84 1
-1 2.86 1 -1 2.88 1 -1 2.9 1 -1
2.92 1 -1 2.94 1 -1 2.96 1 -1 2.98
1 -1 3 1 -1 3.02 1 -1 3.04 1
-1 3.06 1 -1 3.08 1 -1 3.1 1 -1
3.12 1 -1 3.14 1 -1 3.16 1 -1 3.18
[...]
CELL_DATA 500
FIELD attributes 5
cellID 1 500 int
0 1 2 3 4 5 6 7 8 9 10
11 12 13 14 15 16 17 18 19 20
21 22 23 24 25 26 27 28 29 30
31 32 33 34 35 36 37 38 39 40
41 42 43 44 45 46 47 48 49 50
51 52 53 54 55 56 57 58 59 60
61 62 63 64 65 66 67 68 69 70
71 72 73 74 75 76 77 78 79 80
81 82 83 84 85 86 87 88 89 90
91 92 93 94 95 96 97 98 99 100
101 102 103 104 105 106 107 108 109 110
111 112 113 114 115 116 117 118 119 120
121 122 123 124 125 126 127 128 129 130
131 132 133 134 135 136 137 138 139 140
141 142 143 144 145 146 147 148 149 150
151 152 153 154 155 156 157 158 159 160
161 162 163 164 165 166 167 168 169 170
171 172 173 174 175 176 177 178 179 180
181 182 183 184 185 186 187 188 189 190
191 192 193 194 195 196 197 198 199 200
201 202 203 204 205 206 207 208 209 210
211 212 213 214 215 216 217 218 219 220
221 222 223 224 225 226 227 228 229 230
231 232 233 234 235 236 237 238 239 240
241 242 243 244 245 246 247 248 249 250
251 252 253 254 255 256 257 258 259 260
261 262 263 264 265 266 267 268 269 270
271 272 273 274 275 276 277 278 279 280
281 282 283 284 285 286 287 288 289 290
291 292 293 294 295 296 297 298 299 300
301 302 303 304 305 306 307 308 309 310
311 312 313 314 315 316 317 318 319 320
321 322 323 324 325 326 327 328 329 330
331 332 333 334 335 336 337 338 339 340
341 342 343 344 345 346 347 348 349 350
351 352 353 354 355 356 357 358 359 360
361 362 363 364 365 366 367 368 369 370
371 372 373 374 375 376 377 378 379 380
381 382 383 384 385 386 387 388 389 390
391 392 393 394 395 396 397 398 399 400
401 402 403 404 405 406 407 408 409 410
411 412 413 414 415 416 417 418 419 420
421 422 423 424 425 426 427 428 429 430
431 432 433 434 435 436 437 438 439 440
441 442 443 444 445 446 447 448 449 450
451 452 453 454 455 456 457 458 459 460
461 462 463 464 465 466 467 468 469 470
471 472 473 474 475 476 477 478 479 480
481 482 483 484 485 486 487 488 489 490
491 492 493 494 495 496 497 498 499 
magU 1 500 float
8.16889e-13 8.89825e-13 1.02111e-12 1.40767e-12 8.24182e-13 1.28368e-12 7.80421e-13 1.11593e-12 1.16698e-12 1.62648e-12 1.48061e-12
1.81612e-12 1.66295e-12 1.55355e-12 1.42226e-12 1.53167e-12 1.58272e-12 1.57543e-12 1.1524e-12 1.31286e-12 1.21804e-12
1.42226e-12 1.30556e-12 1.63378e-12 1.78694e-12 1.77236e-12 1.6046e-12 1.55355e-12 1.82341e-12 1.34203e-12 1.88906e-12
1.2618e-12 1.63378e-12 1.50979e-12 1.84529e-12 1.57543e-12 2.11516e-12 2.28291e-12 2.49443e-12 2.25374e-12 1.94011e-12
1.83071e-12 1.69213e-12 1.77236e-12 1.838e-12 1.6119e-12 1.44414e-12 1.56813e-12 1.00652e-12 1.10134e-12 8.60651e-13
9.19e-13 8.82532e-13 7.0019e-13 6.71016e-13 4.81381e-13 6.63722e-13 6.12667e-13 9.04413e-13 8.97119e-13 1.10863e-12
1.06487e-12 5.76198e-13 2.47984e-13 3.5593e-12 9.21188e-12 2.37262e-11 5.38053e-11 1.21293e-10 2.65438e-10 5.7517e-10
1.23306e-09 2.61733e-09 5.50652e-09 1.14808e-08 2.37241e-08 4.85834e-08 9.85878e-08 1.98215e-07 3.94791e-07 7.78835e-07
1.52161e-06 2.94351e-06 5.63712e-06 1.06856e-05 2.0045e-05 3.72043e-05 6.83074e-05 0.000124032 0.000222686 0.00039522
0.000693203 0.00120127 0.00205616 0.00347519 0.00579789 0.00954518 0.0155014 0.0248237 0.0391839 0.0609421
0.0933507 0.140775 0.208912 0.304967 0.437754 0.617664 0.856447 1.1668 1.5617 2.05367
2.6538 3.37094 4.21098 5.17638 6.26606 7.47556 8.79759 10.223 11.7419 13.344
15.0197 16.76 18.5567 20.4026 22.2915 24.218 26.1775 28.1662 30.1807 32.2183
34.2767 36.3538 38.448 40.5579 42.6821 44.8196 46.9695 49.1309 51.3031 53.4853
55.677 57.8776 60.0866 62.3034 64.5277 66.7589 68.9966 71.2405 73.4901 75.7452
78.0053 80.2701 82.5394 84.8128 87.09 89.3708 91.655 93.9422 96.2323 98.5251
100.82 103.118 105.417 107.719 110.022 112.326 114.632 116.94 119.248 121.558
123.868 126.179 128.491 130.804 133.117 135.43 137.743 140.057 142.371 144.685
146.998 149.311 151.624 153.937 156.249 158.561 160.871 163.182 165.491 167.8
170.106 172.413 174.716 177.02 179.322 181.622 183.921 186.217 188.512 190.804
193.094 195.381 197.667 199.948 202.227 204.503 206.774 209.042 211.307 213.566
215.821 218.071 220.315 222.553 224.785 227.01 229.228 231.438 233.639 235.83
238.011 240.182 242.34 244.485 246.615 248.73 250.828 252.907 254.966 257.003
259.015 261.001 262.957 264.882 266.772 268.623 270.433 272.198 273.914 275.576
277.18 278.722 280.197 281.6 282.927 284.174 285.337 286.412 287.398 288.292
289.094 289.805 290.427 290.962 291.416 291.795 292.105 292.354 292.549 292.699
292.811 292.893 292.951 292.992 293.02 293.039 293.051 293.06 293.068 293.074
293.081 293.088 293.095 293.103 293.111 293.119 293.126 293.133 293.14 293.146
293.151 293.155 293.159 293.162 293.164 293.166 293.168 293.169 293.17 293.171
293.171 293.172 293.172 293.173 293.173 293.173 293.173 293.174 293.174 293.174
293.175 293.175 293.176 293.176 293.177 293.177 293.178 293.178 293.179 293.179
293.18 293.18 293.18 293.18 293.18 293.18 293.18 293.18 293.18 293.18
293.18 293.18 293.179 293.179 293.179 293.178 293.178 293.177 293.176 293.176
293.175 293.175 293.174 293.174 293.174 293.174 293.174 293.174 293.173 293.174
293.174 293.178 293.192 293.24 293.32 293.295 293.179 293.106 293.077 293.071
293.073 293.082 293.096 293.112 293.127 293.14 293.148 293.153 293.156 293.158
293.159 293.159 293.159 293.159 293.159 293.159 293.159 293.159 293.158 293.158
293.157 293.157 293.156 293.156 293.155 293.155 293.154 293.154 293.153 293.153
293.152 293.152 293.151 293.15 293.15 293.149 293.148 293.147 293.146 293.145
293.145 293.144 293.143 293.143 293.142 293.142 293.141 293.14 293.139 293.138
293.137 293.136 293.136 293.135 293.135 293.134 293.133 293.132 293.13 293.129
293.127 293.126 293.125 293.124 293.124 293.123 293.121 293.12 293.117 293.115
293.113 293.111 293.109 293.107 293.104 293.099 293.094 293.087 293.079 293.065
293.041 293.003 292.937 292.824 292.627 292.297 291.707 290.606 288.484 284.316
275.895 255.227 197.327 98.9307 29.2437 6.54065 1.27727 0.23614 0.0431059 0.00784872
0.00142842 0.000259942 4.73031e-05 8.60795e-06 1.56643e-06 2.85049e-07 5.1873e-08 9.44057e-09 1.71898e-09 3.13511e-10
5.83201e-11 1.16115e-11 3.4499e-12 1.33474e-12 1.65566e-12 1.39309e-12 1.42226e-12 1.2691e-12 1.37121e-12 1.1524e-12
1.53896e-12 1.53167e-12 1.3785e-12 1.60461e-12 1.67754e-12 1.91094e-12 1.81612e-12 2.14434e-12 2.1808e-12 2.51631e-12
2.48714e-12 2.47255e-12 2.26103e-12 2.63301e-12 2.03493e-12 2.32668e-12 1.85259e-12 1.93282e-12 1.42226e-12 1.69942e-12
1.33474e-12 1.43685e-12 1.64107e-12 1.94741e-12 1.58272e-12 1.48791e-12 1.37121e-12 1.44414e-12 1.00653e-12 
p 1 500 float
100000 100000 100000 100000 100000 100000 100000 100000 100000 100000 100000
100000 100000 100000 100000 100000 100000 100000 100000 100000 100000
100000 100000 100000 100000 100000 100000 100000 100000 100000 100000
100000 100000 100000 100000 100000 100000 100000 100000 100000 100000
100000 100000 100000 100000 100000 100000 100000 100000 100000 100000
100000 100000 100000 100000 100000 100000 100000 100000 100000 100000
100000 100000 100000 100000 100000 100000 100000 100000 100000 100000
100000 100000 100000 100000 100000 100000 100000 100000 100000 100000
100000 100000 100000 100000 100000 100000 100000 100000 99999.9 99999.9
99999.7 99999.6 99999.2 99998.7 99997.9 99996.5 99994.3 99990.9 99985.6 99977.6
99965.6 99948 99922.8 99887.2 99838 99771.2 99682.6 99567.3 99420.7 99238.1
99015.6 98750.1 98439.6 98083.7 97683.1 97240 96757.5 96239.5 95690.2 95113.8
94514.2 93895 93259.6 92610.7 91950.8 91282.2 90606.4 89925.2 89239.8 88551.1
87860.3 87167.9 86474.7 85781.3 85088 84395.3 83703.6 83013.2 82324.3 81637.2
80952.1 80269.3 79588.9 78911 78235.9 77563.6 76894.4 76228.3 75565.5 74906
74250 73597.5 72948.8 72303.7 71662.4 71025 70391.6 69762.1 69136.7 68515.3
67898.1 67285 66676.1 66071.5 65471 64874.9 64283 63695.4 63112.2 62533.2
61958.6 61388.3 60822.3 60260.7 59703.4 59150.4 58601.8 58057.5 57517.5 56981.8
56450.4 55923.3 55400.4 54881.9 54367.6 53857.6 53351.8 52850.3 52352.9 51859.9
51370.9 50886.4 50405.7 49929.5 49457.3 48989.2 48525.4 48065.6 47610 47158.5
46711.2 46267.9 45828.8 45393.8 44962.9 44536.1 44113.5 43695 43280.6 42870.4
42464.3 42062.5 41664.9 41271.5 40882.4 40497.6 40117.2 39741.2 39369.6 39002.6
38640.2 38282.5 37929.6 37581.6 37238.6 36900.7 36568.1 36241 35919.5 35603.8
35294.2 34990.9 34694.2 34404.4 34121.7 33846.7 33579.5 33320.7 33070.6 32829.8
32598.6 32377.6 32167.3 31968.1 31780.5 31605 31441.8 31291.4 31153.9 31029.4
30917.9 30819.2 30733 30658.6 30595.5 30542.9 30499.7 30465 30437.6 30416.6
30400.7 30389.1 30380.8 30374.9 30371 30368.2 30366.3 30365 30363.9 30363
30362.1 30361.1 30360.1 30359 30357.9 30356.8 30355.8 30354.8 30353.8 30353
30352.3 30351.6 30351.1 30350.6 30350.3 30349.9 30349.7 30349.5 30349.3 30349.1
30349 30348.9 30348.8 30348.7 30348.6 30348.5 30348.4 30348.3 30348.2 30348.1
30348 30347.9 30347.8 30347.7 30347.5 30347.4 30347.3 30347.1 30347 30346.9
30346.8 30346.7 30346.6 30346.5 30346.4 30346.3 30346.3 30346.2 30346.2 30346.1
30346.1 30346 30346 30346 30345.9 30345.9 30345.9 30345.9 30345.9 30345.9
30345.9 30345.9 30345.9 30345.9 30345.8 30345.7 30345.6 30345.6 30345.5 30345.5
30345.5 30345.7 30346.7 30347.6 30358.3 30334.6 30337.2 30341.3 30344.8 30345.3
30345.8 30346.1 30346.2 30346.3 30346.1 30345.9 30345.7 30345.5 30345.3 30345.2
30345.1 30345 30344.9 30344.9 30344.8 30344.7 30344.7 30344.6 30344.5 30344.4
30344.4 30344.3 30344.3 30344.2 30344.2 30344.1 30344.1 30344 30343.9 30343.9
30343.8 30343.7 30343.7 30343.6 30343.5 30343.5 30343.4 30343.4 30343.3 30343.2
30343.2 30343.1 30343 30342.9 30342.8 30342.7 30342.7 30342.6 30342.5 30342.5
30342.4 30342.3 30342.2 30342 30341.9 30341.7 30341.6 30341.5 30341.5 30341.4
30341.3 30341.2 30341 30340.8 30340.6 30340.4 30340.3 30340.1 30340 30339.9
30339.8 30339.5 30339.3 30339 30338.7 30338.4 30338 30337.5 30336.3 30334.7
30332.4 30328.5 30322.1 30311.6 30294.7 30264.2 30208.6 30103.6 29897.1 29496.6
28723.5 26863 21148.9 14134.2 11138.3 10241.4 10045.5 10008.3 10001.5 10000.3
10000.1 10000 10000 10000 10000 10000 10000 10000 10000 10000
10000 10000 10000 10000 10000 10000 10000 10000 10000 10000
10000 10000 10000 10000 10000 10000 10000 10000 10000 10000
10000 10000 10000 10000 10000 10000 10000 10000 10000 10000
10000 10000 10000 10000 10000 10000 10000 10000 10000 
T 1 500 float
348.432 348.432 348.432 348.432 348.432 348.432 348.432 348.432 348.432 348.432 348.432
348.432 348.432 348.432 348.432 348.432 348.432 348.432 348.432 348.432 348.432
348.432 348.432 348.432 348.432 348.432 348.432 348.432 348.432 348.432 348.432
348.432 348.432 348.432 348.432 348.432 348.432 348.432 348.432 348.432 348.432
348.432 348.432 348.432 348.432 348.432 348.432 348.432 348.432 348.432 348.432
348.432 348.432 348.432 348.432 348.432 348.432 348.432 348.432 348.432 348.432
348.432 348.432 348.432 348.432 348.432 348.432 348.432 348.432 348.432 348.432
348.432 348.432 348.432 348.432 348.432 348.432 348.432 348.432 348.432 348.432
348.432 348.432 348.432 348.432 348.432 348.432 348.432 348.432 348.432 348.432
348.432 348.432 348.431 348.431 348.43 348.429 348.426 348.423 348.418 348.41
348.398 348.38 348.355 348.319 348.27 348.204 348.115 348 347.853 347.67
347.447 347.18 346.867 346.508 346.103 345.653 345.161 344.632 344.068 343.474
342.853 342.209 341.545 340.864 340.168 339.458 338.738 338.007 337.269 336.522
335.769 335.011 334.247 333.478 332.705 331.928 331.148 330.364 329.578 328.789
327.997 327.204 326.408 325.61 324.811 324.01 323.208 322.405 321.6 320.795
319.989 319.182 318.374 317.566 316.758 315.949 315.14 314.331 313.523 312.714
311.905 311.097 310.288 309.481 308.673 307.866 307.06 306.254 305.449 304.644
303.84 303.037 302.235 301.434 300.633 299.834 299.035 298.238 297.441 296.645
295.851 295.058 294.264 293.477 292.68 291.907 291.088 290.359 289.479 288.843
287.856 287.328 286.283 285.734 284.824 284.058 283.382 282.482 281.788 281.044
280.191 279.493 278.744 277.92 277.2 276.472 275.669 274.924 274.215 273.444
272.68 271.965 271.238 270.479 269.741 269.035 268.312 267.571 266.852 266.155
265.449 264.73 264.026 263.344 262.661 261.971 261.286 260.622 259.97 259.316
258.663 258.025 257.407 256.8 256.197 255.603 255.027 254.474 253.938 253.414
252.905 252.42 251.963 251.531 251.12 250.731 250.37 250.04 249.742 249.475
249.233 249.015 248.827 248.673 248.545 248.435 248.346 248.275 248.22 248.182
248.159 248.142 248.125 248.115 248.113 248.114 248.117 248.12 248.121 248.123
248.124 248.128 248.133 248.138 248.14 248.142 248.144 248.149 248.155 248.161
248.166 248.17 248.174 248.18 248.189 248.198 248.206 248.212 248.219 248.227
248.237 248.248 248.258 248.267 248.275 248.285 248.297 248.311 248.324 248.335
248.345 248.357 248.372 248.389 248.405 248.42 248.434 248.45 248.468 248.489
248.51 248.531 248.551 248.572 248.595 248.622 248.651 248.681 248.71 248.739
248.771 248.807 248.848 248.894 248.942 248.989 249.034 249.079 249.128 249.186
249.26 249.353 249.464 249.589 249.716 249.835 249.935 250.009 250.058 250.092
250.134 250.217 250.418 251.023 252.952 258.032 266.171 276.209 287.803 300.474
313.676 326.842 339.429 350.982 361.18 369.85 376.962 382.598 386.919 390.127
392.433 394.038 395.119 395.821 396.26 396.522 396.671 396.75 396.789 396.806
396.813 396.816 396.817 396.82 396.828 396.839 396.852 396.866 396.878 396.891
396.903 396.914 396.924 396.934 396.944 396.953 396.961 396.968 396.974 396.979
396.983 396.986 396.989 396.99 396.991 396.992 396.992 396.992 396.992 396.992
396.992 396.991 396.99 396.989 396.988 396.986 396.985 396.984 396.983 396.982
396.981 396.98 396.98 396.979 396.978 396.978 396.977 396.977 396.976 396.975
396.974 396.973 396.971 396.969 396.969 396.968 396.967 396.964 396.958 396.955
396.944 396.929 396.893 396.848 396.776 396.62 396.373 395.853 394.878 392.959
389.449 381.948 356.75 310.428 287.73 280.635 279.104 278.812 278.758 278.748
278.746 278.746 278.746 278.746 278.746 278.746 278.746 278.746 278.746 278.746
278.746 278.746 278.746 278.746 278.746 278.746 278.746 278.746 278.746 278.746
278.746 278.746 278.746 278.746 278.746 278.746 278.746 278.746 278.746 278.746
278.746 278.746 278.746 278.746 278.746 278.746 278.746 278.746 278.746 278.746
278.746 278.746 278.746 278.746 278.746 278.746 278.746 278.746 278.746 
U 3 500 float
-8.16889e-13 0 0 -8.89825e-13 0 0 -1.02111e-12 0 0 -1.40767e-12 0
0 -8.24182e-13 0 0 -1.28368e-12 0 0 -7.80421e-13 0 0
-1.11593e-12 0 0 -1.16698e-12 0 0 -1.62648e-12 0 0 -1.48061e-12
0 0 -1.81612e-12 0 0 -1.66295e-12 0 0 -1.55355e-12 0
0 -1.42226e-12 0 0 -1.53167e-12 0 0 -1.58272e-12 0 0
-1.57543e-12 0 0 -1.1524e-12 0 0 -1.31286e-12 0 0 -1.21804e-12
0 0 -1.42226e-12 0 0 -1.30556e-12 0 0 -1.63378e-12 0
0 -1.78694e-12 0 0 -1.77236e-12 0 0 -1.6046e-12 0 0
-1.55355e-12 0 0 -1.82341e-12 0 0 -1.34203e-12 0 0 -1.88906e-12
0 0 -1.2618e-12 0 0 -1.63378e-12 0 0 -1.50979e-12 0
0 -1.84529e-12 0 0 -1.57543e-12 0 0 -2.11516e-12 0 0
-2.28291e-12 0 0 -2.49443e-12 0 0 -2.25374e-12 0 0 -1.94011e-12
0 0 -1.83071e-12 0 0 -1.69213e-12 0 0 -1.77236e-12 0
0 -1.838e-12 0 0 -1.6119e-12 0 0 -1.44414e-12 0 0
-1.56813e-12 0 0 -1.00652e-12 0 0 -1.10134e-12 0 0 -8.60651e-13
0 0 -9.19e-13 0 0 -8.82532e-13 0 0 -7.0019e-13 0
0 -6.71016e-13 0 0 -4.81381e-13 0 0 -6.63722e-13 0 0
-6.12667e-13 0 0 -9.04413e-13 0 0 -8.97119e-13 0 0 -1.10863e-12
0 0 -1.06487e-12 0 0 -5.76198e-13 0 0 2.47984e-13 0
0 3.5593e-12 0 0 9.21188e-12 0 0 2.37262e-11 0 0
5.38053e-11 0 0 1.21293e-10 0 0 2.65438e-10 0 0 5.7517e-10
0 0 1.23306e-09 0 0 2.61733e-09 0 0 5.50652e-09 0
0 1.14808e-08 0 0 2.37241e-08 0 0 4.85834e-08 0 0
9.85878e-08 0 0 1.98215e-07 0 0 3.94791e-07 0 0 7.78835e-07
0 0 1.52161e-06 0 0 2.94351e-06 0 0 5.63712e-06 0
0 1.06856e-05 0 0 2.0045e-05 0 0 3.72043e-05 0 0
6.83074e-05 0 0 0.000124032 0 0 0.000222686 0 0 0.00039522
0 0 0.000693203 0 0 0.00120127 0 0 0.00205616 0
0 0.00347519 0 0 0.00579789 0 0 0.00954518 0 0
0.0155014 0 0 0.0248237 0 0 0.0391839 0 0 0.0609421
0 0 0.0933507 0 0 0.140775 0 0 0.208912 0
0 0.304967 0 0 0.437754 0 0 0.617664 0 0
0.856447 0 0 1.1668 0 0 1.5617 0 0 2.05367
0 0 2.6538 0 0 3.37094 0 0 4.21098 0
0 5.17638 0 0 6.26606 0 0 7.47556 0 0
8.79759 0 0 10.223 0 0 11.7419 0 0 13.344
0 0 15.0197 0 0 16.76 0 0 18.5567 0
0 20.4026 0 0 22.2915 0 0 24.218 0 0
26.1775 0 0 28.1662 0 0 30.1807 0 0 32.2183
0 0 34.2767 0 0 36.3538 0 0 38.448 0
0 40.5579 0 0 42.6821 0 0 44.8196 0 0
46.9695 0 0 49.1309 0 0 51.3031 0 0 53.4853
0 0 55.677 0 0 57.8776 0 0 60.0866 0
0 62.3034 0 0 64.5277 0 0 66.7589 0 0
68.9966 0 0 71.2405 0 0 73.4901 0 0 75.7452
0 0 78.0053 0 0 80.2701 0 0 82.5394 0
0 84.8128 0 0 87.09 0 0 89.3708 0 0
91.655 0 0 93.9422 0 0 96.2323 0 0 98.5251
0 0 100.82 0 0 103.118 0 0 105.417 0
0 107.719 0 0 110.022 0 0 112.326 0 0
114.632 0 0 116.94 0 0 119.248 0 0 121.558
0 0 123.868 0 0 126.179 0 0 128.491 0
0 130.804 0 0 133.117 0 0 135.43 0 0
137.743 0 0 140.057 0 0 142.371 0 0 144.685
0 0 146.998 0 0 149.311 0 0 151.624 0
0 153.937 0 0 156.249 0 0 158.561 0 0
160.871 0 0 163.182 0 0 165.491 0 0 167.8
0 0 170.106 0 0 172.413 0 0 174.716 0
0 177.02 0 0 179.322 0 0 181.622 0 0
183.921 0 0 186.217 0 0 188.512 0 0 190.804
0 0 193.094 0 0 195.381 0 0 197.667 0
0 199.948 0 0 202.227 0 0 204.503 0 0
206.774 0 0 209.042 0 0 211.307 0 0 213.566
0 0 215.821 0 0 218.071 0 0 220.315 0
0 222.553 0 0 224.785 0 0 227.01 0 0
229.228 0 0 231.438 0 0 233.639 0 0 235.83
0 0 238.011 0 0 240.182 0 0 242.34 0
0 244.485 0 0 246.615 0 0 248.73 0 0
250.828 0 0 252.907 0 0 254.966 0 0 257.003
0 0 259.015 0 0 261.001 0 0 262.957 0
0 264.882 0 0 266.772 0 0 268.623 0 0
270.433 0 0 272.198 0 0 273.914 0 0 275.576
0 0 277.18 0 0 278.722 0 0 280.197 0
0 281.6 0 0 282.927 0 0 284.174 0 0
285.337 0 0 286.412 0 0 287.398 0 0 288.292
0 0 289.094 0 0 289.805 0 0 290.427 0
0 290.962 0 0 291.416 0 0 291.795 0 0
292.105 0 0 292.354 0 0 292.549 0 0 292.699
0 0 292.811 0 0 292.893 0 0 292.951 0
0 292.992 0 0 293.02 0 0 293.039 0 0
293.051 0 0 293.06 0 0 293.068 0 0 293.074
0 0 293.081 0 0 293.088 0 0 293.095 0
0 293.103 0 0 293.111 0 0 293.119 0 0
293.126 0 0 293.133 0 0 293.14 0 0 293.146
0 0 293.151 0 0 293.155 0 0 293.159 0
0 293.162 0 0 293.164 0 0 293.166 0 0
293.168 0 0 293.169 0 0 293.17 0 0 293.171
0 0 293.171 0 0 293.172 0 0 293.172 0
0 293.173 0 0 293.173 0 0 293.173 0 0
293.173 0 0 293.174 0 0 293.174 0 0 293.174
0 0 293.175 0 0 293.175 0 0 293.176 0
0 293.176 0 0 293.177 0 0 293.177 0 0
293.178 0 0 293.178 0 0 293.179 0 0 293.179
0 0 293.18 0 0 293.18 0 0 293.18 0
0 293.18 0 0 293.18 0 0 293.18 0 0
293.18 0 0 293.18 0 0 293.18 0 0 293.18
0 0 293.18 0 0 293.18 0 0 293.179 0
0 293.179 0 0 293.179 0 0 293.178 0 0
293.178 0 0 293.177 0 0 293.176 0 0 293.176
0 0 293.175 0 0 293.175 0 0 293.174 0
0 293.174 0 0 293.174 0 0 293.174 0 0
293.174 0 0 293.174 0 0 293.173 0 0 293.174
0 0 293.174 0 0 293.178 0 0 293.192 0
0 293.24 0 0 293.32 0 0 293.295 0 0
293.179 0 0 293.106 0 0 293.077 0 0 293.071
0 0 293.073 0 0 293.082 0 0 293.096 0
0 293.112 0 0 293.127 0 0 293.14 0 0
293.148 0 0 293.153 0 0 293.156 0 0 293.158
0 0 293.159 0 0 293.159 0 0 293.159 0
0 293.159 0 0 293.159 0 0 293.159 0 0
293.159 0 0 293.159 0 0 293.158 0 0 293.158
0 0 293.157 0 0 293.157 0 0 293.156 0
0 293.156 0 0 293.155 0 0 293.155 0 0
293.154 0 0 293.154 0 0 293.153 0 0 293.153
0 0 293.152 0 0 293.152 0 0 293.151 0
0 293.15 0 0 293.15 0 0 293.149 0 0
293.148 0 0 293.147 0 0 293.146 0 0 293.145
0 0 293.145 0 0 293.144 0 0 293.143 0
0 293.143 0 0 293.142 0 0 293.142 0 0
293.141 0 0 293.14 0 0 293.139 0 0 293.138
0 0 293.137 0 0 293.136 0 0 293.136 0
0 293.135 0 0 293.135 0 0 293.134 0 0
293.133 0 0 293.132 0 0 293.13 0 0 293.129
0 0 293.127 0 0 293.126 0 0 293.125 0
0 293.124 0 0 293.124 0 0 293.123 0 0
293.121 0 0 293.12 0 0 293.117 0 0 293.115
0 0 293.113 0 0 293.111 0 0 293.109 0
0 293.107 0 0 293.104 0 0 293.099 0 0
293.094 0 0 293.087 0 0 293.079 0 0 293.065
0 0 293.041 0 0 293.003 0 0 292.937 0
0 292.824 0 0 292.627 0 0 292.297 0 0
291.707 0 0 290.606 0 0 288.484 0 0 284.316
0 0 275.895 0 0 255.227 0 0 197.327 0
0 98.9307 0 0 29.2437 0 0 6.54065 0 0