# vtk DataFile Version 2.0
shockTube
ASCII
DATASET UNSTRUCTURED_GRID
POINTS 4004 float
-5 -1 -1 -4.99 -1 -1 -4.98 -1 -1 -4.97 -1
-1 -4.96 -1 -1 -4.95 -1 -1 -4.94 -1 -1
-4.93 -1 -1 -4.92 -1 -1 -4.91 -1 -1 -4.9
-1 -1 -4.89 -1 -1 -4.88 -1 -1 -4.87 -1
-1 -4.86 -1 -1 -4.85 -1 -1 -4.84 -1 -1
-4.83 -1 -1 -4.82 -1 -1 -4.81 -1 -1 -4.8
-1 -1 -4.79 -1 -1 -4.78 -1 -1 -4.77 -1
-1 -4.76 -1 -1 -4.75 -1 -1 -4.74 -1 -1
-4.73 -1 -1 -4.72 -1 -1 -4.71 -1 -1 -4.7
-1 -1 -4.69 -1 -1 -4.68 -1 -1 -4.67 -1
-1 -4.66 -1 -1 -4.65 -1 -1 -4.64 -1 -1
-4.63 -1 -1 -4.62 -1 -1 -4.61 -1 -1 -4.6
-1 -1 -4.59 -1 -1 -4.58 -1 -1 -4.57 -1
-1 -4.56 -1 -1 -4.55 -1 -1 -4.54 -1 -1
-4.53 -1 -1 -4.52 -1 -1 -4.51 -1 -1 -4.5
-1 -1 -4.49 -1 -1 -4.48 -1 -1 -4.47 -1
-1 -4.46 -1 -1 -4.45 -1 -1 -4.44 -1 -1
-4.43 -1 -1 -4.42 -1 -1 -4.41 -1 -1 -4.4
-1 -1 -4.39 -1 -1 -4.38 -1 -1 -4.37 -1
-1 -4.36 -1 -1 -4.35 -1 -1 -4.34 -1 -1
-4.33 -1 -1 -4.32 -1 -1 -4.31 -1 -1 -4.3
-1 -1 -4.29 -1 -1 -4.28 -1 -1 -4.27 -1
-1 -4.26 -1 -1 -4.25 -1 -1 -4.24 -1 -1
-4.23 -1 -1 -4.22 -1 -1 -4.21 -1 -1 -4.2
-1 -1 -4.19 -1 -1 -4.18 -1 -1 -4.17 -1
-1 -4.16 -1 -1 -4.15 -1 -1 -4.14 -1 -1
-4.13 -1 -1 -4.12 -1 -1 -4.11 -1 -1 -4.1
-1 -1 -4.09 -1 -1 -4.08 -1 -1 -4.07 -1
-1 -4.06 -1 -1 -4.05 -1 -1 -4.04 -1 -1
-4.03 -1 -1 -4.02 -1 -1 -4.01 -1 -1 -4
-1 -1 -3.99 -1 -1 -3.98 -1 -1 -3.97 -1
-1 -3.96 -1 -1 -3.95 -1 -1 -3.94 -1 -1
-3.93 -1 -1 -3.92 -1 -1 -3.91 -1 -1 -3.9
-1 -1 -3.89 -1 -1 -3.88 -1 -1 -3.87 -1
-1 -3.86 -1 -1 -3.85 -1 -1 -3.84 -1 -1
-3.83 -1 -1 -3.82 -1 -1 -3.81 -1 -1 -3.8
-1 -1 -3.79 -1 -1 -3.78 -1 -1 -3.77 -1
-1 -3.76 -1 -1 -3.75 -1 -1 -3.74 -1 -1
-3.73 -1 -1 -3.72 -1 -1 -3.71 -1 -1 -3.7
-1 -1 -3.69 -1 -1 -3.68 -1 -1 -3.67 -1
-1 -3.66 -1 -1 -3.65 -1 -1 -3.64 -1 -1
-3.63 -1 -1 -3.62 -1 -1 -3.61 -1 -1 -3.6
-1 -1 -3.59 -1 -1 -3.58 -1 -1 -3.57 -1
-1 -3.56 -1 -1 -3.55 -1 -1 -3.54 -1 -1
-3.53 -1 -1 -3.52 -1 -1 -3.51 -1 -1 -3.5
-1 -1 -3.49 -1 -1 -3.48 -1 -1 -3.47 -1
-1 -3.46 -1 -1 -3.45 -1 -1 -3.44 -1 -1
-3.43 -1 -1 -3.42 -1 -1 -3.41 -1 -1 -3.4
-1 -1 -3.39 -1 -1 -3.38 -1 -1 -3.37 -1
-1 -3.36 -1 -1 -3.35 -1 -1 -3.34 -1 -1
-3.33 -1 -1 -3.32 -1 -1 -3.31 -1 -1 -3.3
-1 -1 -3.29 -1 -1 -3.28 -1 -1 -3.27 -1
-1 -3.26 -1 -1 -3.25 -1 -1 -3.24 -1 -1
-3.23 -1 -1 -3.22 -1 -1 -3.21 -1 -1 -3.2
-1 -1 -3.19 -1 -1 -3.18 -1 -1 -3.17 -1
-1 -3.16 -1 -1 -3.15 -1 -1 -3.14 -1 -1
-3.13 -1 -1 -3.12 -1 -1 -3.11 -1 -1 -3.1
-1 -1 -3.09 -1 -1 -3.08 -1 -1 -3.07 -1
-1 -3.06 -1 -1 -3.05 -1 -1 -3.04 -1 -1
-3.03 -1 -1 -3.02 -1 -1 -3.01 -1 -1 -3
-1 -1 -2.99 -1 -1 -2.98 -1 -1 -2.97 -1
-1 -2.96 -1 -1 -2.95 -1 -1 -2.94 -1 -1
-2.93 -1 -1 -2.92 -1 -1 -2.91 -1 -1 -2.9
-1 -1 -2.89 -1 -1 -2.88 -1 -1 -2.87 -1
-1 -2.86 -1 -1 -2.85 -1 -1 -2.84 -1 -1
-2.83 -1 -1 -2.82 -1 -1 -2.81 -1 -1 -2.8
-1 -1 -2.79 -1 -1 -2.78 -1 -1 -2.77 -1
-1 -2.76 -1 -1 -2.75 -1 -1 -2.74 -1 -1
-2.73 -1 -1 -2.72 -1 -1 -2.71 -1 -1 -2.7
-1 -1 -2.69 -1 -1 -2.68 -1 -1 -2.67 -1
-1 -2.66 -1 -1 -2.65 -1 -1 -2.64 -1 -1
-2.63 -1 -1 -2.62 -1 -1 -2.61 -1 -1 -2.6
-1 -1 -2.59 -1 -1 -2.58 -1 -1 -2.57 -1
-1 -2.56 -1 -1 -2.55 -1 -1 -2.54 -1 -1
-2.53 -1 -1 -2.52 -1 -1 -2.51 -1 -1 -2.5
-1 -1 -2.49 -1 -1 -2.48 -1 -1 -2.47 -1
-1 -2.46 -1 -1 -2.45 -1 -1 -2.44 -1 -1
-2.43 -1 -1 -2.42 -1 -1 -2.41 -1 -1 -2.4
-1 -1 -2.39 -1 -1 -2.38 -1 -1 -2.37 -1
-1 -2.36 -1 -1 -2.35 -1 -1 -2.34 -1 -1
-2.33 -1 -1 -2.32 -1 -1 -2.31 -1 -1 -2.3
-1 -1 -2.29 -1 -1 -2.28 -1 -1 -2.27 -1
-1 -2.26 -1 -1 -2.25 -1 -1 -2.24 -1 -1
-2.23 -1 -1 -2.22 -1 -1 -2.21 -1 -1 -2.2
-1 -1 -2.19 -1 -1 -2.18 -1 -1 -2.17 -1
-1 -2.16 -1 -1 -2.15 -1 -1 -2.14 -1 -1
-2.13 -1 -1 -2.12 -1 -1 -2.11 -1 -1 -2.1
-1 -1 -2.09 -1 -1 -2.08 -1 -1 -2.07 -1
-1 -2.06 -1 -1 -2.05 -1 -1 -2.04 -1 -1
-2.03 -1 -1 -2.02 -1 -1 -2.01 -1 -1 -2
-1 -1 -1.99 -1 -1 -1.98 -1 -1 -1.97 -1
-1 -1.96 -1 -1 -1.95 -1 -1 -1.94 -1 -1
-1.93 -1 -1 -1.92 -1 -1 -1.91 -1 -1 -1.9
-1 -1 -1.89 -1 -1 -1.88 -1 -1 -1.87 -1
-1 -1.86 -1 -1 -1.85 -1 -1 -1.84 -1 -1
-1.83 -1 -1 -1.82 -1 -1 -1.81 -1 -1 -1.8
-1 -1 -1.79 -1 -1 -1.78 -1 -1 -1.77 -1
-1 -1.76 -1 -1 -1.75 -1 -1 -1.74 -1 -1
-1.73 -1 -1 -1.72 -1 -1 -1.71 -1 -1 -1.7
-1 -1 -1.69 -1 -1 -1.68 -1 -1 -1.67 -1
-1 -1.66 -1 -1 -1.65 -1 -1 -1.64 -1 -1
-1.63 -1 -1 -1.62 -1 -1 -1.61 -1 -1 -1.6
-1 -1 -1.59 -1 -1 -1.58 -1 -1 -1.57 -1
-1 -1.56 -1 -1 -1.55 -1 -1 -1.54 -1 -1
-1.53 -1 -1 -1.52 -1 -1 -1.51 -1 -1 -1.5
-1 -1 -1.49 -1 -1 -1.48 -1 -1 -1.47 -1
-1 -1.46 -1 -1 -1.45 -1 -1 -1.44 -1 -1
-1.43 -1 -1 -1.42 -1 -1 -1.41 -1 -1 -1.4
-1 -1 -1.39 -1 -1 -1.38 -1 -1 -1.37 -1
-1 -1.36 -1 -1 -1.35 -1 -1 -1.34 -1 -1
-1.33 -1 -1 -1.32 -1 -1 -1.31 -1 -1 -1.3
-1 -1 -1.29 -1 -1 -1.28 -1 -1 -1.27 -1
-1 -1.26 -1 -1 -1.25 -1 -1 -1.24 -1 -1
-1.23 -1 -1 -1.22 -1 -1 -1.21 -1 -1 -1.2
-1 -1 -1.19 -1 -1 -1.18 -1 -1 -1.17 -1
-1 -1.16 -1 -1 -1.15 -1 -1 -1.14 -1 -1
-1.13 -1 -1 -1.12 -1 -1 -1.11 -1 -1 -1.1
-1 -1 -1.09 -1 -1 -1.08 -1 -1 -1.07 -1
-1 -1.06 -1 -1 -1.05 -1 -1 -1.04 -1 -1
-1.03 -1 -1 -1.02 -1 -1 -1.01 -1 -1 -1
-1 -1 -0.99 -1 -1 -0.98 -1 -1 -0.97 -1
-1 -0.96 -1 -1 -0.95 -1 -1 -0.94 -1 -1
-0.93 -1 -1 -0.92 -1 -1 -0.91 -1 -1 -0.9
-1 -1 -0.89 -1 -1 -0.88 -1 -1 -0.87 -1
-1 -0.86 -1 -1 -0.85 -1 -1 -0.84 -1 -1
-0.83 -1 -1 -0.82 -1 -1 -0.81 -1 -1 -0.8
-1 -1 -0.79 -1 -1 -0.78 -1 -1 -0.77 -1
-1 -0.76 -1 -1 -0.75 -1 -1 -0.74 -1 -1
-0.73 -1 -1 -0.72 -1 -1 -0.71 -1 -1 -0.7
-1 -1 -0.69 -1 -1 -0.68 -1 -1 -0.67 -1
-1 -0.66 -1 -1 -0.65 -1 -1 -0.64 -1 -1
-0.63 -1 -1 -0.62 -1 -1 -0.61 -1 -1 -0.6
-1 -1 -0.59 -1 -1 -0.58 -1 -1 -0.57 -1
-1 -0.56 -1 -1 -0.55 -1 -1 -0.54 -1 -1
-0.53 -1 -1 -0.52 -1 -1 -0.51 -1 -1 -0.5
-1 -1 -0.49 -1 -1 -0.48 -1 -1 -0.47 -1
-1 -0.46 -1 -1 -0.45 -1 -1 -0.44 -1 -1
-0.43 -1 -1 -0.42 -1 -1 -0.41 -1 -1 -0.4
-1 -1 -0.39 -1 -1 -0.38 -1 -1 -0.37 -1
-1 -0.36 -1 -1 -0.35 -1 -1 -0.34 -1 -1
-0.33 -1 -1 -0.32 -1 -1 -0.31 -1 -1 -0.3
-1 -1 -0.29 -1 -1 -0.28 -1 -1 -0.27 -1
-1 -0.26 -1 -1 -0.25 -1 -1 -0.24 -1 -1
-0.23 -1 -1 -0.22 -1 -1 -0.21 -1 -1 -0.2
-1 -1 -0.19 -1 -1 -0.18 -1 -1 -0.17 -1
-1 -0.16 -1 -1 -0.15 -1 -1 -0.14 -1 -1
-0.13 -1 -1 -0.12 -1 -1 -0.11 -1 -1 -0.1
-1 -1 -0.09 -1 -1 -0.08 -1 -1 -0.07 -1
-1 -0.06 -1 -1 -0.05 -1 -1 -0.04 -1 -1
-0.03 -1 -1 -0.02 -1 -1 -0.01 -1 -1 0
-1 -1 0.01 -1 -1 0.02 -1 -1 0.03 -1
-1 0.04 -1 -1 0.05 -1 -1 0.06 -1 -1
0.07 -1 -1 0.08 -1 -1 0.09 -1 -1 0.1
-1 -1 0.11 -1 -1 0.12 -1 -1 0.13 -1
-1 0.14 -1 -1 0.15 -1 -1 0.16 -1 -1
0.17 -1 -1 0.18 -1 -1 0.19 -1 -1 0.2
-1 -1 0.21 -1 -1 0.22 -1 -1 0.23 -1
-1 0.24 -1 -1 0.25 -1 -1 0.26 -1 -1
0.27 -1 -1 0.28 -1 -1 0.29 -1 -1 0.3
-1 -1 0.31 -1 -1 0.32 -1 -1 0.33 -1
-1 0.34 -1 -1 0.35 -1 -1 0.36 -1 -1
0.37 -1 -1 0.38 -1 -1 0.39 -1 -1 0.4
-1 -1 0.41 -1 -1 0.42 -1 -1 0.43 -1
-1 0.44 -1 -1 0.45 -1 -1 0.46 -1 -1
0.47 -1 -1 0.48 -1 -1 0.49 -1 -1 0.5
-1 -1 0.51 -1 -1 0.52 -1 -1 0.53 -1
-1 0.54 -1 -1 0.55 -1 -1 0.56 -1 -1
0.57 -1 -1 0.58 -1 -1 0.59 -1 -1 0.6
-1 -1 0.61 -1 -1 0.62 -1 -1 0.63 -1
-1 0.64 -1 -1 0.65 -1 -1 0.66 -1 -1
0.67 -1 -1 0.68 -1 -1 0.69 -1 -1 0.7
-1 -1 0.71 -1 -1 0.72 -1 -1 0.73 -1
-1 0.74 -1 -1 0.75 -1 -1 0.76 -1 -1
0.77 -1 -1 0.78 -1 -1 0.79 -1 -1 0.8
-1 -1 0.81 -1 -1 0.82 -1 -1 0.83 -1
-1 0.84 -1 -1 0.85 -1 -1 0.86 -1 -1
0.87 -1 -1 0.88 -1 -1 0.89 -1 -1 0.9
-1 -1 0.91 -1 -1 0.92 -1 -1 0.93 -1
-1 0.94 -1 -1 0.95 -1 -1 0.96 -1 -1
0.97 -1 -1 0.98 -1 -1 0.99 -1 -1 1
-1 -1 1.01 -1 -1 1.02 -1 -1 1.03 -1
-1 1.04 -1 -1 1.05 -1 -1 1.06 -1 -1
1.07 -1 -1 1.08 -1 -1 1.09 -1 -1 1.1
-1 -1 1.11 -1 -1 1.12 -1 -1 1.13 -1
-1 1.14 -1 -1 1.15 -1 -1 1.16 -1 -1
1.17 -1 -1 1.18 -1 -1 1.19 -1 -1 1.2
-1 -1 1.21 -1 -1 1.22 -1 -1 1.23 -1
-1 1.24 -1 -1 1.25 -1 -1 1.26 -1 -1
1.27 -1 -1 1.28 -1 -1 1.29 -1 -1 1.3
-1 -1 1.31 -1 -1 1.32 -1 -1 1.33 -1
-1 1.34 -1 -1 1.35 -1 -1 1.36 -1 -1
1.37 -1 -1 1.38 -1 -1 1.39 -1 -1 1.4
-1 -1 1.41 -1 -1 1.42 -1 -1 1.43 -1
-1 1.44 -1 -1 1.45 -1 -1 1.46 -1 -1
1.47 -1 -1 1.48 -1 -1 1.49 -1 -1 1.5
-1 -1 1.51 -1 -1 1.52 -1 -1 1.53 -1
-1 1.54 -1 -1 1.55 -1 -1 1.56 -1 -1
1.57 -1 -1 1.58 -1 -1 1.59 -1 -1 1.6
-1 -1 1.61 -1 -1 1.62 -1 -1 1.63 -1
-1 1.64 -1 -1 1.65 -1 -1 1.66 -1 -1
1.67 -1 -1 1.68 -1 -1 1.69 -1 -1 1.7
-1 -1 1.71 -1 -1 1.72 -1 -1 1.73 -1
-1 1.74 -1 -1 1.75 -1 -1 1.76 -1 -1
1.77 -1 -1 1.78 -1 -1 1.79 -1 -1 1.8
-1 -1 1.81 -1 -1 1.82 -1 -1 1.83 -1
-1 1.84 -1 -1 1.85 -1 -1 1.86 -1 -1
1.87 -1 -1 1.88 -1 -1 1.89 -1 -1 1.9
-1 -1 1.91 -1 -1 1.92 -1 -1 1.93 -1
-1 1.94 -1 -1 1.95 -1 -1 1.96 -1 -1
1.97 -1 -1 1.98 -1 -1 1.99 -1 -1 2
-1 -1 2.01 -1 -1 2.02 -1 -1 2.03 -1
-1 2.04 -1 -1 2.05 -1 -1 2.06 -1 -1
2.07 -1 -1 2.08 -1 -1 2.09 -1 -1 2.1
-1 -1 2.11 -1 -1 2.12 -1 -1 2.13 -1
-1 2.14 -1 -1 2.15 -1 -1 2.16 -1 -1
2.17 -1 -1 2.18 -1 -1 2.19 -1 -1 2.2
-1 -1 2.21 -1 -1 2.22 -1 -1 2.23 -1
-1 2.24 -1 -1 2.25 -1 -1 2.26 -1 -1
2.27 -1 -1 2.28 -1 -1 2.29 -1 -1 2.3
-1 -1 2.31 -1 -1 2.32 -1 -1 2.33 -1
-1 2.34 -1 -1 2.35 -1 -1 2.36 -1 -1
2.37 -1 -1 2.38 -1 -1 2.39 -1 -1 2.4
-1 -1 2.41 -1 -1 2.42 -1 -1 2.43 -1
-1 2.44 -1 -1 2.45 -1 -1 2.46 -1 -1
2.47 -1 -1 2.48 -1 -1 2.49 -1 -1 2.5
-1 -1 2.51 -1 -1 2.52 -1 -1 2.53 -1
-1 2.54 -1 -1 2.55 -1 -1 2.56 -1 -1
2.57 -1 -1 2.58 -1 -1 2.59 -1 -1 2.6
-1 -1 2.61 -1 -1 2.62 -1 -1 2.63 -1
-1 2.64 -1 -1 2.65 -1 -1 2.66 -1 -1
2.67 -1 -1 2.68 -1 -1 2.69 -1 -1 2.7
-1 -1 2.71 -1 -1 2.72 -1 -1 2.73 -1
-1 2.74 -1 -1 2.75 -1 -1 2.76 -1 -1
2.77 -1 -1 2.78 -1 -1 2.79 -1 -1 2.8
-1 -1 2.81 -1 -1 2.82 -1 -1 2.83 -1
-1 2.84 -1 -1 2.85 -1 -1 2.86 -1 -1
2.87 -1 -1 2.88 -1 -1 2.89 -1 -1 2.9
-1 -1 2.91 -1 -1 2.92 -1 -1 2.93 -1
-1 2.94 -1 -1 2.95 -1 -1 2.96 -1 -1
2.97 -1 -1 2.98 -1 -1 2.99 -1 -1 3
-1 -1 3.01 -1 -1 3.02 -1 -1 3.03 -1
-1 3.04 -1 -1 3.05 -1 -1 3.06 -1 -1
3.07 -1 -1 3.08 -1 -1 3.09 -1 -1 3.1
-1 -1 3.11 -1 -1 3.12 -1 -1 3.13 -1
-1 3.14 -1 -1 3.15 -1 -1 3.16 -1 -1
3.17 -1 -1 3.18 -1 -1 3.19 -1 -1 3.2
-1 -1 3.21 -1 -1 3.22 -1 -1 3.23 -1
-1 3.24 -1 -1 3.25 -1 -1 3.26 -1 -1
3.27 -1 -1 3.28 -1 -1 3.29 -1 -1 3.3
-1 -1 3.31 -1 -1 3.32 -1 -1 3.33 -1
-1 3.34 -1 -1 3.35 -1 -1 3.36 -1 -1
3.37 -1 -1 3.38 -1 -1 3.39 -1 -1 3.4
-1 -1 3.41 -1 -1 3.42 -1 -1 3.43 -1
-1 3.44 -1 -1 3.45 -1 -1 3.46 -1 -1
3.47 -1 -1 3.48 -1 -1 3.49 -1 -1 3.5
-1 -1 3.51 -1 -1 3.52 -1 -1 3.53 -1
-1 3.54 -1 -1 3.55 -1 -1 3.56 -1 -1
3.57 -1 -1 3.58 -1 -1 3.59 -1 -1 3.6
-1 -1 3.61 -1 -1 3.62 -1 -1 3.63 -1
[...]
CELL_DATA 1000
FIELD attributes 5
cellID 1 1000 int
0 1 2 3 4 5 6 7 8 9 10
11 12 13 14 15 16 17 18 19 20
21 22 23 24 25 26 27 28 29 30
31 32 33 34 35 36 37 38 39 40
41 42 43 44 45 46 47 48 49 50
51 52 53 54 55 56 57 58 59 60
61 62 63 64 65 66 67 68 69 70
71 72 73 74 75 76 77 78 79 80
81 82 83 84 85 86 87 88 89 90
91 92 93 94 95 96 97 98 99 100
101 102 103 104 105 106 107 108 109 110
111 112 113 114 115 116 117 118 119 120
121 122 123 124 125 126 127 128 129 130
131 132 133 134 135 136 137 138 139 140
141 142 143 144 145 146 147 148 149 150
151 152 153 154 155 156 157 158 159 160
161 162 163 164 165 166 167 168 169 170
171 172 173 174 175 176 177 178 179 180
181 182 183 184 185 186 187 188 189 190
191 192 193 194 195 196 197 198 199 200
201 202 203 204 205 206 207 208 209 210
211 212 213 214 215 216 217 218 219 220
221 222 223 224 225 226 227 228 229 230
231 232 233 234 235 236 237 238 239 240
241 242 243 244 245 246 247 248 249 250
251 252 253 254 255 256 257 258 259 260
261 262 263 264 265 266 267 268 269 270
271 272 273 274 275 276 277 278 279 280
281 282 283 284 285 286 287 288 289 290
291 292 293 294 295 296 297 298 299 300
301 302 303 304 305 306 307 308 309 310
311 312 313 314 315 316 317 318 319 320
321 322 323 324 325 326 327 328 329 330
331 332 333 334 335 336 337 338 339 340
341 342 343 344 345 346 347 348 349 350
351 352 353 354 355 356 357 358 359 360
361 362 363 364 365 366 367 368 369 370
371 372 373 374 375 376 377 378 379 380
381 382 383 384 385 386 387 388 389 390
391 392 393 394 395 396 397 398 399 400
401 402 403 404 405 406 407 408 409 410
411 412 413 414 415 416 417 418 419 420
421 422 423 424 425 426 427 428 429 430
431 432 433 434 435 436 437 438 439 440
441 442 443 444 445 446 447 448 449 450
451 452 453 454 455 456 457 458 459 460
461 462 463 464 465 466 467 468 469 470
471 472 473 474 475 476 477 478 479 480
481 482 483 484 485 486 487 488 489 490
491 492 493 494 495 496 497 498 499 500
501 502 503 504 505 506 507 508 509 510
511 512 513 514 515 516 517 518 519 520
521 522 523 524 525 526 527 528 529 530
531 532 533 534 535 536 537 538 539 540
541 542 543 544 545 546 547 548 549 550
551 552 553 554 555 556 557 558 559 560
561 562 563 564 565 566 567 568 569 570
571 572 573 574 575 576 577 578 579 580
581 582 583 584 585 586 587 588 589 590
591 592 593 594 595 596 597 598 599 600
601 602 603 604 605 606 607 608 609 610
611 612 613 614 615 616 617 618 619 620
621 622 623 624 625 626 627 628 629 630
631 632 633 634 635 636 637 638 639 640
641 642 643 644 645 646 647 648 649 650
651 652 653 654 655 656 657 658 659 660
661 662 663 664 665 666 667 668 669 670
671 672 673 674 675 676 677 678 679 680
681 682 683 684 685 686 687 688 689 690
691 692 693 694 695 696 697 698 699 700
701 702 703 704 705 706 707 708 709 710
711 712 713 714 715 716 717 718 719 720
721 722 723 724 725 726 727 728 729 730
731 732 733 734 735 736 737 738 739 740
741 742 743 744 745 746 747 748 749 750
751 752 753 754 755 756 757 758 759 760
761 762 763 764 765 766 767 768 769 770
771 772 773 774 775 776 777 778 779 780
781 782 783 784 785 786 787 788 789 790
791 792 793 794 795 796 797 798 799 800
801 802 803 804 805 806 807 808 809 810
811 812 813 814 815 816 817 818 819 820
821 822 823 824 825 826 827 828 829 830
831 832 833 834 835 836 837 838 839 840
841 842 843 844 845 846 847 848 849 850
851 852 853 854 855 856 857 858 859 860
861 862 863 864 865 866 867 868 869 870
871 872 873 874 875 876 877 878 879 880
881 882 883 884 885 886 887 888 889 890
891 892 893 894 895 896 897 898 899 900
901 902 903 904 905 906 907 908 909 910
911 912 913 914 915 916 917 918 919 920
921 922 923 924 925 926 927 928 929 930
931 932 933 934 935 936 937 938 939 940
941 942 943 944 945 946 947 948 949 950
951 952 953 954 955 956 957 958 959 960
961 962 963 964 965 966 967 968 969 970
971 972 973 974 975 976 977 978 979 980
981 982 983 984 985 986 987 988 989 990
991 992 993 994 995 996 997 998 999 
magU 1 1000 float
4.95968e-13 4.95968e-13 4.95968e-13 5.54317e-13 3.93857e-13 5.98079e-13 1.45873e-13 1.45873e-13 2.91746e-14 4.37619e-14 1.45873e-14
2.91746e-14 2.91746e-14 1.02111e-13 1.02111e-13 1.45873e-13 7.73127e-13 5.3973e-13 9.62762e-13 8.31476e-13 1.12322e-12
1.44414e-12 1.61919e-12 1.59002e-12 1.57543e-12 1.61919e-12 1.67754e-12 1.54625e-12 1.94011e-12 1.45873e-12 1.88176e-12
1.53167e-12 1.35662e-12 1.28368e-12 1.22533e-12 1.25451e-12 1.0357e-12 1.44414e-12 1.00652e-12 1.4879e-12 7.29365e-13
1.1524e-12 5.25143e-13 8.31476e-13 5.54317e-13 9.19e-13 5.83492e-13 9.62762e-13 7.87714e-13 9.48175e-13 9.04413e-13
1.22533e-12 1.29827e-12 1.76506e-12 1.54625e-12 2.31938e-12 1.73589e-12 2.20268e-12 2.04222e-12 2.31938e-12 2.10057e-12
2.34856e-12 2.36314e-12 2.12975e-12 2.34856e-12 2.04222e-12 1.96929e-12 2.08598e-12 2.21727e-12 2.45067e-12 2.10057e-12
2.56736e-12 2.27562e-12 2.29021e-12 2.20268e-12 2.46525e-12 2.26103e-12 2.59654e-12 2.68406e-12 2.53819e-12 3.07792e-12
2.56736e-12 2.96122e-12 3.20921e-12 2.77159e-12 3.50095e-12 2.69865e-12 3.58848e-12 2.62571e-12 3.76352e-12 2.94663e-12
3.42802e-12 2.8737e-12 3.18003e-12 3.13627e-12 2.78617e-12 3.03416e-12 2.65489e-12 2.62571e-12 2.74241e-12 2.74241e-12
2.88829e-12 2.85911e-12 2.68406e-12 2.36314e-12 2.43608e-12 1.99846e-12 2.12975e-12 1.88176e-12 1.77965e-12 1.88176e-12
1.66295e-12 1.73589e-12 1.67754e-12 1.38579e-12 1.77965e-12 1.34203e-12 1.42956e-12 1.19616e-12 1.88176e-12 1.32744e-12
2.23186e-12 1.56084e-12 2.39232e-12 2.02763e-12 2.5236e-12 2.71324e-12 2.59654e-12 2.46525e-12 2.30479e-12 2.34856e-12
2.31938e-12 2.11516e-12 2.36314e-12 1.7213e-12 2.29021e-12 1.79424e-12 2.08598e-12 1.69213e-12 1.57543e-12 1.69213e-12
1.40038e-12 1.40038e-12 1.09405e-12 1.12322e-12 8.75238e-13 5.25143e-13 1.89635e-13 7.87714e-13 2.26103e-12 4.68252e-12
8.75238e-12 1.6046e-11 2.77159e-11 4.80797e-11 8.19952e-11 1.38448e-10 2.32609e-10 3.88066e-10 6.44423e-10 1.06423e-09
1.75005e-09 2.86503e-09 4.66853e-09 7.5743e-09 1.22337e-08 1.96718e-08 3.14917e-08 5.01866e-08 7.96199e-08 1.25741e-07
1.9767e-07 3.09311e-07 4.81752e-07 7.46811e-07 1.15223e-06 1.76924e-06 2.70359e-06 4.11131e-06 6.22139e-06 9.3679e-06
1.40354e-05 2.09226e-05 3.1031e-05 4.57871e-05 6.72104e-05 9.81421e-05 0.000142553 0.000205958 0.000295965 0.000422995
0.000601232 0.00084984 0.00119452 0.00166951 0.00232006 0.00320549 0.00440303 0.00601235 0.00816102 0.011011
0.014766 0.0196801 0.026067 0.0343109 0.0448767 0.0583222 0.0753091 0.0966139 0.123137 0.155912
0.196107 0.24503 0.304124 0.374957 0.459212 0.558666 0.675166 0.810599 0.966857 1.1458
1.34924 1.57884 1.83617 2.1226 2.43929 2.78722 3.16709 3.57939 4.02433 4.50194
5.01198 5.55402 6.12746 6.73151 7.36527 8.02771 8.71773 9.43416 10.1758 10.9414
11.7297 12.5396 13.3698 14.2192 15.0866 15.971 16.8713 17.7866 18.7159 19.6584
20.6133 21.5797 22.557 23.5446 24.5417 25.5479 26.5625 27.5851 28.6153 29.6525
30.6965 31.7467 32.803 33.8649 34.9322 36.0045 37.0817 38.1634 39.2496 40.3398
41.434 42.532 43.6335 44.7384 45.8466 46.9579 48.0721 49.1892 50.3089 51.4313
52.5561 53.6832 54.8127 55.9442 57.0778 58.2134 59.3508 60.4901 61.6311 62.7737
63.9179 65.0636 66.2108 67.3593 68.5092 69.6603 70.8127 71.9662 73.1209 74.2766
75.4334 76.5911 77.7498 78.9094 80.0698 81.2311 82.3932 83.5561 84.7197 85.8841
87.0491 88.2148 89.3811 90.548 91.7155 92.8835 94.0521 95.2212 96.3908 97.5609
98.7314 99.9024 101.074 102.246 103.418 104.59 105.763 106.936 108.11 109.284
110.458 111.633 112.807 113.982 115.158 116.333 117.509 118.685 119.861 121.037
122.214 123.391 124.568 125.745 126.922 128.099 129.277 130.454 131.632 132.81
133.988 135.166 136.344 137.522 138.7 139.878 141.056 142.235 143.413 144.591
145.77 146.948 148.127 149.305 150.483 151.662 152.84 154.018 155.197 156.375
157.553 158.731 159.909 161.087 162.265 163.443 164.62 165.798 166.975 168.153
169.33 170.507 171.683 172.86 174.037 175.213 176.389 177.565 178.741 179.917
181.092 182.267 183.442 184.617 185.791 186.965 188.139 189.312 190.485 191.658
192.831 194.003 195.174 196.346 197.517 198.687 199.857 201.027 202.196 203.365
204.533 205.7 206.867 208.034 209.2 210.365 211.53 212.694 213.857 215.019
216.181 217.342 218.502 219.661 220.819 221.976 223.133 224.288 225.442 226.595
227.746 228.897 230.046 231.194 232.34 233.485 234.628 235.77 236.909 238.047
239.183 240.317 241.449 242.578 243.705 244.83 245.952 247.071 248.187 249.3
250.409 251.515 252.618 253.716 254.81 255.9 256.985 258.066 259.14 260.21
261.273 262.33 263.38 264.423 265.459 266.486 267.505 268.515 269.515 270.505
271.484 272.451 273.405 274.347 275.274 276.187 277.084 277.964 278.827 279.671
280.496 281.3 282.082 282.841 283.576 284.287 284.971 285.629 286.259 286.86
287.431 287.973 288.483 288.963 289.412 289.829 290.216 290.571 290.897 291.193
291.461 291.701 291.916 292.106 292.273 292.419 292.546 292.655 292.748 292.827
292.893 292.949 292.995 293.033 293.064 293.089 293.109 293.126 293.139 293.15
293.158 293.165 293.171 293.175 293.179 293.182 293.185 293.187 293.188 293.19
293.191 293.192 293.193 293.193 293.194 293.194 293.195 293.195 293.195 293.196
293.196 293.196 293.196 293.196 293.196 293.196 293.196 293.196 293.196 293.197
293.197 293.197 293.197 293.197 293.197 293.197 293.197 293.197 293.197 293.197
293.197 293.197 293.197 293.197 293.197 293.197 293.197 293.197 293.197 293.197
293.197 293.197 293.197 293.197 293.197 293.197 293.198 293.198 293.198 293.198
293.198 293.198 293.198 293.198 293.198 293.198 293.198 293.198 293.198 293.198
293.198 293.198 293.198 293.198 293.198 293.198 293.198 293.198 293.198 293.198
293.198 293.199 293.199 293.199 293.199 293.199 293.199 293.199 293.199 293.199
293.199 293.199 293.199 293.199 293.199 293.199 293.199 293.199 293.199 293.199
293.199 293.199 293.199 293.199 293.199 293.199 293.199 293.199 293.199 293.199
293.199 293.198 293.198 293.198 293.198 293.198 293.198 293.198 293.198 293.198
293.198 293.198 293.198 293.198 293.198 293.198 293.198 293.198 293.198 293.198
293.198 293.198 293.198 293.198 293.198 293.198 293.198 293.198 293.198 293.198
293.198 293.198 293.198 293.198 293.198 293.198 293.198 293.198 293.198 293.198
293.198 293.198 293.198 293.198 293.198 293.198 293.198 293.198 293.198 293.198
293.198 293.198 293.198 293.198 293.198 293.198 293.197 293.197 293.197 293.197
293.196 293.195 293.193 293.191 293.189 293.186 293.183 293.179 293.176 293.173
293.171 293.169 293.168 293.168 293.169 293.171 293.173 293.176 293.179 293.182
293.184 293.187 293.189 293.191 293.192 293.193 293.194 293.195 293.195 293.195
293.196 293.196 293.196 293.196 293.196 293.196 293.196 293.196 293.196 293.196
293.196 293.196 293.196 293.196 293.195 293.195 293.195 293.195 293.195 293.195
293.195 293.195 293.195 293.195 293.195 293.195 293.195 293.195 293.195 293.195
293.195 293.194 293.194 293.194 293.194 293.194 293.193 293.193 293.193 293.193
293.193 293.193 293.193 293.193 293.193 293.193 293.193 293.193 293.193 293.192
293.192 293.192 293.192 293.192 293.191 293.191 293.191 293.191 293.192 293.192
293.192 293.192 293.192 293.192 293.191 293.191 293.191 293.191 293.19 293.19
293.19 293.189 293.189 293.189 293.189 293.189 293.189 293.189 293.19 293.19
293.19 293.189 293.189 293.189 293.189 293.188 293.188 293.187 293.187 293.186
293.186 293.186 293.186 293.186 293.186 293.187 293.187 293.187 293.187 293.187
293.186 293.186 293.185 293.185 293.184 293.183 293.183 293.182 293.182 293.182
293.182 293.182 293.183 293.183 293.183 293.184 293.184 293.183 293.183 293.182
293.181 293.18 293.179 293.178 293.178 293.177 293.177 293.176 293.176 293.177
293.177 293.178 293.179 293.179 293.18 293.179 293.179 293.178 293.176 293.174
293.172 293.17 293.169 293.168 293.167 293.168 293.169 293.169 293.168 293.165
293.161 293.155 293.146 293.131 293.106 293.05 292.983 292.812 292.656 292.125
291.33 289.246 284.638 274.097 249.285 200.412 129.014 61.6157 22.0933 6.55339
1.74594 0.442759 0.110469 0.0274432 0.00681057 0.00168979 0.000419238 0.000104012 2.58053e-05 6.40227e-06
1.5884e-06 3.94081e-07 9.77722e-08 2.42577e-08 6.0193e-09 1.49425e-09 3.71554e-10 9.29942e-11 2.37627e-11 6.65182e-12
2.08599e-12 1.12322e-12 7.73128e-13 7.29366e-13 7.58541e-13 8.46065e-13 9.48176e-13 8.46065e-13 1.21075e-12 1.06487e-12
1.48791e-12 1.31286e-12 1.21075e-12 1.23992e-12 9.33589e-13 7.73128e-13 6.27255e-13 7.87715e-13 8.31477e-13 5.68906e-13
4.81382e-13 4.66794e-13 5.54318e-13 6.12667e-13 4.08445e-13 4.66794e-13 5.10556e-13 5.54318e-13 4.52207e-13 5.10556e-13
5.54318e-13 4.23032e-13 5.83493e-13 5.10556e-13 2.47984e-13 3.35508e-13 2.47984e-13 3.20921e-13 1.89635e-13 7.29366e-14
8.75239e-14 1.31286e-13 1.02111e-13 7.29366e-14 2.91746e-14 2.33397e-13 3.64683e-13 4.66794e-13 4.08445e-13 1.75048e-13
2.91746e-13 2.1881e-13 3.35508e-13 1.60461e-13 3.35508e-13 3.93858e-13 3.35508e-13 3.20921e-13 1.75048e-13 1.45873e-13
2.1881e-13 2.1881e-13 4.3762e-14 2.91746e-13 2.33397e-13 2.91746e-13 2.33397e-13 5.54318e-13 6.56429e-13 6.41842e-13
9.04414e-13 5.68906e-13 8.89827e-13 5.68906e-13 7.58541e-13 4.08445e-13 7.73128e-13 3.35508e-13 6.85604e-13 5.54318e-13
5.25144e-13 3.50096e-13 2.91746e-13 5.10556e-13 2.47984e-13 3.93858e-13 3.64683e-13 3.20921e-13 1.45873e-14 
p 1 1000 float
100000 100000 100000 100000 100000 100000 100000 100000 100000 100000 100000
100000 100000 100000 100000 100000 100000 100000 100000 100000 100000
100000 100000 100000 100000 100000 100000 100000 100000 100000 100000
100000 100000 100000 100000 100000 100000 100000 100000 100000 100000
100000 100000 100000 100000 100000 100000 100000 100000 100000 100000
100000 100000 100000 100000 100000 100000 100000 100000 100000 100000
100000 100000 100000 100000 100000 100000 100000 100000 100000 100000
100000 100000 100000 100000 100000 100000 100000 100000 100000 100000
100000 100000 100000 100000 100000 100000 100000 100000 100000 100000
100000 100000 100000 100000 100000 100000 100000 100000 100000 100000
100000 100000 100000 100000 100000 100000 100000 100000 100000 100000
100000 100000 100000 100000 100000 100000 100000 100000 100000 100000
100000 100000 100000 100000 100000 100000 100000 100000 100000 100000
100000 100000 100000 100000 100000 100000 100000 100000 100000 100000
100000 100000 100000 100000 100000 100000 100000 100000 100000 100000
100000 100000 100000 100000 100000 100000 100000 100000 100000 100000
100000 100000 100000 100000 100000 100000 100000 100000 100000 100000
100000 100000 100000 100000 100000 100000 100000 100000 100000 100000
100000 100000 100000 100000 100000 100000 99999.9 99999.9 99999.9 99999.8
99999.8 99999.7 99999.6 99999.4 99999.1 99998.8 99998.4 99997.8 99997 99995.9
99994.5 99992.7 99990.3 99987.3 99983.3 99978.3 99972 99964.1 99954.2 99942
99927.1 99908.8 99886.8 99860.4 99829.1 99792 99748.6 99698.2 99640 99573.4
99497.7 99412.3 99316.7 99210.4 99092.9 98963.9 98823.2 98670.8 98506.4 98330.3
98142.4 97943.2 97732.7 97511.4 97279.7 97038.1 96786.9 96526.7 96258 95981.2
95697 95405.7 95108 94804.2 94494.8 94180.3 93861 93537.4 93209.8 92878.6
92544.1 92206.6 91866.4 91523.7 91178.9 90832 90483.4 90133.2 89781.7 89428.9
89075 88720.3 88364.7 88008.5 87651.7 87294.5 86936.9 86579.1 86221.1 85863.1
85505 85147 84789.1 84431.4 84074 83716.8 83360.1 83003.7 82647.8 82292.4
81937.5 81583.2 81229.4 80876.4 80524 80172.3 79821.4 79471.2 79121.8 78773.2
78425.5 78078.6 77732.6 77387.5 77043.3 76700.1 76357.8 76016.4 75676 75336.7
74998.3 74660.9 74324.6 73989.3 73655 73321.8 72989.7 72658.6 72328.7 71999.7
71671.9 71345.2 71019.6 70695.1 70371.7 70049.4 69728.2 69408.1 69089.2 68771.4
68454.7 68139.2 67824.7 67511.5 67199.3 66888.3 66578.5 66269.7 65962.2 65655.7
65350.4 65046.3 64743.2 64441.4 64140.6 63841.1 63542.6 63245.3 62949.1 62654.1
62360.2 62067.5 61775.9 61485.4 61196 60907.8 60620.8 60334.8 60050 59766.3
59483.7 59202.3 58922 58642.8 58364.7 58087.8 57811.9 57537.2 57263.6 56991.1
56719.7 56449.4 56180.2 55912.1 55645.1 55379.2 55114.4 54850.7 54588.1 54326.6
54066.1 53806.8 53548.5 53291.3 53035.2 52780.1 52526.2 52273.3 52021.4 51770.7
51521 51272.4 51024.8 50778.3 50532.8 50288.4 50045.1 49802.8 49561.5 49321.3
49082.1 48844 48606.9 48370.8 48135.8 47901.8 47668.9 47437 47206.1 46976.2
46747.4 46519.6 46292.8 46067 45842.3 45618.6 45395.9 45174.2 44953.5 44733.8
44515.2 44297.6 44081 43865.4 43650.8 43437.2 43224.7 43013.1 42802.6 42593.1
42384.6 42177.1 41970.7 41765.2 41560.8 41357.5 41155.1 40953.8 40753.5 40554.2
40356 40158.8 39962.7 39767.7 39573.6 39380.7 39188.8 38998.1 38808.3 38619.7
38432.2 38245.9 38060.6 37876.5 37693.5 37511.7 37331.1 37151.6 36973.4 36796.4
36620.6 36446.1 36272.9 36101.1 35930.5 35761.4 35593.6 35427.3 35262.4 35099
34937.2 34777 34618.4 34461.5 34306.3 34152.9 34001.4 33851.7 33704.1 33558.5
33415 33273.8 33134.8 32998.2 32864.1 32732.6 32603.8 32477.7 32354.6 32234.4
32117.4 32003.7 31893.3 31786.4 31683.2 31583.6 31488 31396.3 31308.6 31225.1
31145.8 31070.8 31000.2 30933.9 30872 30814.5 30761.3 30712.3 30667.5 30626.8
30590 30556.9 30527.3 30501.2 30478.1 30458 30440.6 30425.5 30412.7 30401.8
30392.6 30384.9 30378.5 30373.3 30369 30365.5 30362.6 30360.3 30358.5 30357
30355.8 30354.8 30354 30353.4 30352.9 30352.5 30352.1 30351.8 30351.6 30351.4
30351.2 30351.1 30351 30350.9 30350.8 30350.7 30350.7 30350.6 30350.6 30350.6
30350.5 30350.5 30350.5 30350.5 30350.5 30350.4 30350.4 30350.4 30350.4 30350.4
30350.4 30350.4 30350.3 30350.3 30350.3 30350.3 30350.3 30350.3 30350.3 30350.3
30350.3 30350.3 30350.3 30350.3 30350.2 30350.2 30350.2 30350.2 30350.2 30350.2
30350.2 30350.2 30350.2 30350.1 30350.1 30350.1 30350.1 30350.1 30350.1 30350.1
30350.1 30350.1 30350.1 30350 30350 30350 30350 30350 30350 30350
30350 30350 30350 30349.9 30349.9 30349.9 30349.9 30349.9 30349.9 30349.9
30349.9 30349.8 30349.8 30349.8 30349.8 30349.8 30349.8 30349.8 30349.8 30349.8
30349.8 30349.7 30349.7 30349.7 30349.7 30349.7 30349.7 30349.7 30349.7 30349.6
30349.6 30349.6 30349.6 30349.6 30349.6 30349.6 30349.6 30349.6 30349.6 30349.6
30349.7 30349.7 30349.7 30349.7 30349.7 30349.7 30349.7 30349.7 30349.7 30349.7
30349.7 30349.6 30349.6 30349.6 30349.6 30349.6 30349.6 30349.6 30349.6 30349.6
30349.6 30349.6 30349.6 30349.5 30349.5 30349.5 30349.5 30349.5 30349.5 30349.5
30349.5 30349.5 30349.5 30349.5 30349.4 30349.4 30349.4 30349.4 30349.4 30349.4
30349.4 30349.4 30349.4 30349.4 30349.4 30349.4 30349.3 30349.3 30349.3 30349.3
30349.3 30349.3 30349.3 30349.3 30349.2 30349.2 30349.1 30349.1 30349 30348.9
30348.9 30348.8 30348.7 30348.6 30348.5 30348.4 30348.4 30348.4 30348.4 30348.4
30348.5 30348.5 30348.7 30348.8 30348.9 30349 30349.1 30349.2 30349.2 30349.3
30349.3 30349.3 30349.3 30349.3 30349.3 30349.3 30349.2 30349.2 30349.2 30349.1
30349.1 30349.1 30349 30349 30349 30348.9 30348.9 30348.9 30348.9 30348.9
30348.8 30348.8 30348.8 30348.8 30348.8 30348.8 30348.8 30348.8 30348.8 30348.8
30348.8 30348.8 30348.8 30348.7 30348.7 30348.7 30348.7 30348.7 30348.7 30348.7
30348.7 30348.7 30348.7 30348.7 30348.7 30348.7 30348.7 30348.6 30348.6 30348.6
30348.6 30348.6 30348.5 30348.5 30348.5 30348.5 30348.5 30348.5 30348.5 30348.5
30348.5 30348.5 30348.5 30348.5 30348.5 30348.4 30348.4 30348.4 30348.3 30348.3
30348.3 30348.2 30348.2 30348.2 30348.2 30348.2 30348.2 30348.2 30348.2 30348.2
30348.2 30348.2 30348.2 30348.2 30348.2 30348.2 30348.1 30348.1 30348 30348
30347.9 30347.9 30347.9 30347.9 30347.9 30347.9 30348 30348 30348 30348
30348 30348 30347.9 30347.9 30347.8 30347.7 30347.7 30347.6 30347.6 30347.6
30347.6 30347.6 30347.6 30347.6 30347.6 30347.6 30347.6 30347.6 30347.6 30347.6
30347.6 30347.5 30347.4 30347.3 30347.2 30347.1 30347.1 30347.1 30347.1 30347.1
30347.1 30347.1 30347.2 30347.2 30347.2 30347.2 30347.2 30347.2 30347.1 30347
30346.9 30346.7 30346.6 30346.4 30346.3 30346.3 30346.3 30346.3 30346.3 30346.4
30346.6 30346.7 30346.7 30346.7 30346.5 30346.3 30346 30345.8 30345.6 30345.4
30344.9 30344.3 30343 30340.8 30338.1 30333.1 30323.8 30311.7 30285.8 30238.4
30154.3 29874.3 29404.3 28062.9 25445 20821.5 16041.3 12590.4 10867 10243.4